
                                 *****************
                                 * O   R   C   A *
                                 *****************

                                            #,                                       
                                            ###                                      
                                            ####                                     
                                            #####                                    
                                            ######                                   
                                           ########,                                 
                                     ,,################,,,,,                         
                               ,,#################################,,                 
                          ,,##########################################,,             
                       ,#########################################, ''#####,          
                    ,#############################################,,   '####,        
                  ,##################################################,,,,####,       
                ,###########''''           ''''###############################       
              ,#####''   ,,,,##########,,,,          '''####'''          '####       
            ,##' ,,,,###########################,,,                        '##       
           ' ,,###''''                  '''############,,,                           
         ,,##''                                '''############,,,,        ,,,,,,###''
      ,#''                                            '''#######################'''  
     '                                                          ''''####''''         
             ,#######,   #######,   ,#######,      ##                                
            ,#'     '#,  ##    ##  ,#'     '#,    #''#        ,####,    ,#,          
            ##       ##  ##   ,#'  ##            #'  '#       #'       ,# #          
            ##       ##  #######   ##           ,######,      #####,      #          
            '#,     ,#'  ##    ##  '#,     ,#' ,#      #,     #,   #      #          
             '#######'   ##     ##  '#######'  #'      '#     '####' #    #          



                #########################################################
                #                        -***-                          #
                #          Department of theory and spectroscopy        #
                #                                                       #
                #                      Frank Neese                      #
                #                                                       #
                #     Directorship, Architecture, Infrastructure        #
                #                    SHARK, DRIVERS                     #
                #        Core code/Algorithms in most modules           #
                #                                                       #
                #        Max Planck Institute fuer Kohlenforschung      #
                #                Kaiser Wilhelm Platz 1                 #
                #                 D-45470 Muelheim/Ruhr                 #
                #                      Germany                          #
                #                                                       #
                #                  All rights reserved                  #
                #                        -***-                          #
                #########################################################


                         Program Version 6.1.1  -  RELEASE   -
                                (GIT: $487d211c$)
                          ($2025-11-21 10:33:24 +0100$)


 With contributions from (in alphabetic order):
[Max-Planck-Institut fuer Kohlenforschung]                               
  Daniel Aravena         : Magnetic Suceptibility                        
  Michael Atanasov       : Ab Initio Ligand Field Theory (pilot matlab implementation)
  Alexander A. Auer      : GIAO ZORA, VPT2 properties, NMR spectrum      
  Ute Becker             : All parallelization in ORCA, NUMFREQ, NUMCALC 
  Giovanni Bistoni       : ED, misc. LED, open-shell LED, HFLD           
  Dmytro Bykov           : pre 5.0 version of the SCF Hessian            
  Marcos Casanova-Páez   : Triplet and SCS-CIS(D). UHF-(DLPNO)-IP/EA/STEOM-CCSD. UHF-CVS-IP/STEOM-CCSD   
  Vijay G. Chilkuri      : MRCI spin determinant printing, contributions to CSF-ICE 
  Pauline Colinet        : FMM embedding                                 
  Dipayan Datta          : RHF DLPNO-CCSD density                        
  Achintya Kumar Dutta   : EOM-CC, STEOM-CC                              
  Nicolas Foglia         : Exact transition moments, OPA infrastructure, MCD improvements    
  Dmitry Ganyushin       : Spin-Orbit,Spin-Spin,Magnetic field MRCI      
  Miquel Garcia-Rates    : C-PCM and meta-GGA Hessian, CCSD/C-PCM, Gaussian charge scheme 
  Tiago L. C. Gouveia    : GS-ROHF, GS-ROCIS                             
  Yang Guo               : DLPNO-NEVPT2, F12-NEVPT2, CIM, IAO-localization        
  Andreas Hansen         : Spin unrestricted coupled pair/coupled cluster methods 
  Ingolf Harden          : AUTO-CI MPn and infrastructure                
  Benjamin Helmich-Paris : MC-RPA, TRAH-(SCF,CASSCF), AVAS, COSX integrals, SCF dyn. polar., MC-PDFT, srDFT 
  Lee Huntington         : MR-EOM, pCC                                   
  Robert Izsak           : Overlap fitted RIJCOSX, COSX-SCS-MP3, EOM     
  Riya Kayal             : Wick's Theorem for AUTO-CI, AUTO-CI UHF-CCSDT 
  Emily Kempfer          : AUTO-CI RHF CISDT and CCSDT, approximate NEVPT4
  Christian Kollmar      : KDIIS, OOCD, Brueckner-CCSD(T), CCSD density, CASPT2, CASPT2-K, improved NEVPT2 
  Axel Koslowski         : Symmetry handling                             
  Simone Kossmann        : meta-GGA functionals, TD-DFT gradient, OOMP2, (MP2 Hessian; deprecated post 5.0) 
  Lucas Lang             : DCDCAS, Hyperfine gauge corrections, ICE-SOC+SSC
  Marvin Lechner         : AUTO-CI (C++ implementation), FIC-MRCC        
  Spencer Leger          : CASSCF response                               
  Dagmar Lenk            : GEPOL surface, SMD, ORCA-2-JSON               
  Dimitrios Liakos       : Extrapolation schemes; Compound Job, Property file
  Dimitrios Manganas     : Further ROCIS development; embedding schemes. LFT, Crystal Embedding 
  Dimitrios Pantazis     : SARC Basis sets                               
  Anastasios Papadopoulos: AUTO-CI, single reference methods and gradients 
  Taras Petrenko         : pre 6.0 DFT Hessian and TD-DFT gradient,  ECA, NRVS 
  Petra Pikulova         : Analytic Raman intensities                    
  Peter Pinski           : DLPNO-MP2, DLPNO-MP2 Gradient                 
  Shashank Vittal Rao    : ES-AILFT, MagRelax                            
  Christoph Reimann      : Effective Core Potentials                     
  Marius Retegan         : Local ZFS, SOC                                
  Christoph Riplinger    : Optimizer, TS searches, QM/MM, DLPNO-CCSD(T), (RO)-DLPNO pert. Triples 
  Michael Roemelt        : Original ROCIS implementation, recursive CI coupling coefficients
  Masaaki Saitow         : Open-shell DLPNO-CCSD energy and density      
  Barbara Sandhoefer     : DKH picture change effects                    
  Yorick L. A. Schmerwitz: GMF and freeze-and-release deltaSCF, NEB S-IDPP initial path                    
  Kantharuban Sivalingam : CASSCF convergence/infrastructure, NEVPT2, NEVPT3, NEVPT4(SD), FIC-MRCI and CEPA variants
  Bernardo de Souza      : ESD, SOC TD-DFT                               
  Georgi L. Stoychev     : AutoAux, RI-MP2 NMR, DLPNO-MP2 response, X2C  
  Van Anh Tran           : RI-MP2 g-tensors                              
  Willem Van den Heuvel  : Paramagnetic NMR                              
  Zikuan Wang            : NOTCH, Electric field optimization            
  Frank Wennmohs         : Technical directorship and infrastructure     
  Hang Xu                : AUTO-CI-Response properties                   
                                                                         
[FACCTs GmbH]                                                            
  Markus Bursch, Nicolas Foglia, Miquel Garcia-Rates, Ingolf Harden, Hagen Neugebauer, Anastasios Papadopoulos, 
  Christoph Riplinger, Bernardo de Souza, Georgi L. Stoychev                                                    
                                                                 
  APM, various basis sets, CI-OPT, improved COSX, DLPNO-Multilevel,           
  DOCKER, DRACO, updates on ESD, Fragmentator, GOAT, IRC, LR-CPCM, L-BFGS, MBIS, meta-GGA TD-DFT gradient, ML-optimized integration grids, 
  MM, NACMEs, nearIR, NEB, NEB-TS, NL-DFT gradient (VV10), 2- and 3-layer-ONIOM, interface openCOSMO-RS, QMMM,   
  Crystal-QMMM, RESP, rigid body optimization, SF, symmetry and pop. for TD-DFT, various functionals, SOLVATOR                                   
                                                                         
[Other institutions]                                                     
  V. Asgeirsson          : NEB                                           
  Christoph Bannwarth    : sTDA-DFT, sTD-DFT, PBEh-3c, B97-3c, D3        
  Giovanni Bistoni       : ETS/NOCV, ADLD/ADEX, COVALED                  
  Martin Brehm           : Molecular dynamics                            
  Ronald Cardenas        : ETS/NOCV                                      
  Martina Colucci        : COVALED                                       
  Sebastian Ehlert       : rSCAN, r2SCAN, r2SCAN-3c, D4, dhf basis sets  
  Marvin Friede          : D4 for Fr, Ra, Ac-Lr                          
  Lars Goerigk           : TD-DFT with DH, B97 family of functionals     
  Stefan Grimme          : VdW corrections, initial TS optimization, DFT functionals, gCP, sTDA/sTD-DF 
  Waldemar Hujo          : DFT-NL                                        
  H. Jonsson             : NEB                                           
  Holger Kruse           : gCP                                           
  Marcel Mueller         : wB97X-3c, vDZP basis set                      
  Hagen Neugebauer       : wr2SCAN, Native XTB                           
  Gianluca Regni         : ADLD/ADEX                                     
  Tobias Risthaus        : pre 6.0 range-separated hybrid DFT and stability analysis
  Lukas Wittmann         : regularized MP2, r2SCAN double-hybrids, wr2SCAN        
                                                                         
We gratefully acknowledge several colleagues who have allowed us to      
interface, adapt or use parts of their codes:                            
  Ed Valeev, F. Pavosevic, A. Kumar             : LibInt (2-el integral package), F12 methods 
  Garnet Chan, S. Sharma, J. Yang, R. Olivares  : DMRG                   
  Ulf Ekstrom                                   : XCFun DFT Library      
  Mihaly Kallay                                 : mrcc  (arbitrary order and MRCC methods)
  Frank Weinhold                                : gennbo (NPA and NBO analysis)           
  Simon Mueller                                 : openCOSMO-RS                            
  Christopher J. Cramer and Donald G. Truhlar   : smd solvation model                     
  S Lehtola, MJT Oliveira, MAL Marques          : LibXC Library                           
  Liviu Ungur et al                             : ANISO software                          


 Your calculation uses the libint2 library for the computation of 2-el integrals
 For citations please refer to: http://libint.valeyev.net

 Your ORCA version has been built with support for libXC version: 7.0.0
 For citations please refer to: https://libxc.gitlab.io

 This ORCA versions uses:
   CBLAS   interface :  Fast vector & matrix operations
   LAPACKE interface :  Fast linear algebra routines
   SCALAPACK package :  Parallel linear algebra routines
   Shared memory     :  Shared parallel matrices
   BLAS/LAPACK       :  OpenBLAS 0.3.29  USE64BITINT DYNAMIC_ARCH NO_AFFINITY Cooperlake SINGLE_THREADED
        Core in use  :  Cooperlake
   Copyright (c) 2011-2014, The OpenBLAS Project


  ***********************************
  * Starting time: Wed Feb 18 17:21:08 2026
  * Host name:     Breado
  * Process ID:    15699
  * Working dir.:  /home/bread/other_data/B3LYP_cc-pVTZ
  ***********************************

Warning: RI is on but no J-basis has been assigned. Assigning Def2/J (nothing to worry about!)
================================================================================

----- Orbital basis set information -----
Your calculation utilizes the basis: cc-pVTZ 
       H, B-Ne : Obtained from the ccRepo (grant-hill.group.shef.ac.uk/ccrepo) Feb. 2017
                 T. H. Dunning, Jr., J. Chem. Phys. 90, 1007 (1989)
            He : Obtained from the ccRepo (grant-hill.group.shef.ac.uk/ccrepo) Feb. 2017
                 D. E. Woon, T. H. Dunning, Jr., J. Chem. Phys. 100, 2975 (1994)
  Li-Be, Na-Mg : Obtained from the ccRepo (grant-hill.group.shef.ac.uk/ccrepo) Feb. 2017
                 B. P. Prascher, D. E. Woon, K. A. Peterson, T. H. Dunning, Jr., A. K. Wilson, Theor. Chem. Acc. 128, 69 (2011)
         Al-Ar : Obtained from the ccRepo (grant-hill.group.shef.ac.uk/ccrepo) Feb. 2017
                 D. E. Woon, T. H. Dunning, Jr., J. Chem. Phys. 98, 1358 (1993)
            Ca : Obtained from the Peterson Research Group Website (tyr0.chem.wsu.edu/~kipeters) Feb. 2017
                 J. Koput, K. A. Peterson, J. Phys. Chem. 106, 9595 (2002)
         Sc-Zn : Obtained from the ccRepo (grant-hill.group.shef.ac.uk/ccrepo) Feb. 2017
                 N. B. Balabanov, K. A. Peterson, J. Chem. Phys. 123, 064107 (2005)
                 N. B. Balabanov, K. A. Peterson, J. Chem. Phys. 125, 074110 (2006)
         Ga-Kr : Obtained from the ccRepo (grant-hill.group.shef.ac.uk/ccrepo) Feb. 2017
                 A. K. Wilson, D. E. Woon, K. A. Peterson, T. H. Dunning, Jr., J. Chem. Phys. 110, 7667 (1999)
             Y : Obtained from the ccRepo (grant-hill.group.shef.ac.uk/ccrepo) Feb. 2017
                 K. A. Peterson, D. Figgen, M. Dolg, H. Stoll, J. Chem. Phys. 126, 124101 (2007)
        Ag, Au : Obtained from the Peterson Research Group Website (tyr0.chem.wsu.edu/~kipeters) Feb. 2017
                 K. A. Peterson, C. Puzzarini, Theor. Chem. Acc. 114, 283 (2005)

----- AuxJ basis set information -----
Your calculation utilizes the auxiliary basis: def2/J
   H-Rn: F. Weigend, Phys. Chem. Chem. Phys. 8, 1057 (2006).
   Fr-Lr: K. Eichkorn, F. Weigend, O. Treutler, R. Ahlrichs; Theor. Chem. Acc. 97, 119 (1997).

================================================================================
                                        WARNINGS
                       Please study these warnings very carefully!
================================================================================


WARNING: Geometry Optimization
  ===> : Switching off AutoStart
         For restart on a previous wavefunction, please use MOREAD

================================================================================
                                       INPUT FILE
================================================================================
NAME = HFE_347pcf2_gauche1.inp
|  1> # avogadro generated ORCA input file 
|  2> # Basic Mode
|  3> # 
|  4> ! B3LYP cc-pVTZ OPT FREQ 
|  5> % FREQ TEMP 305, 320, 340 END
|  6> 
|  7> * xyz 0 1
|  8>    F        2.03360        0.95850       -1.19810
|  9>    F        1.40780        1.54460        0.81840
| 10>    F        3.14700       -0.57680        0.75040
| 11>    F        1.78880       -1.67110       -0.55230
| 12>    F       -2.75120        1.05380       -0.44060
| 13>    F       -3.13920       -0.46580        1.07550
| 14>    F       -2.38540       -1.04850       -0.89120
| 15>    O       -0.05490        0.42730       -0.50780
| 16>    C        1.30530        0.57550       -0.12160
| 17>    C       -0.88930        0.03820        0.57430
| 18>    C        1.84110       -0.72430        0.41630
| 19>    C       -2.30350       -0.11120        0.07660
| 20>    H       -0.85070        0.79020        1.36930
| 21>    H       -0.60420       -0.93450        0.98000
| 22>    H        1.34190       -1.10100        1.30910
| 23> *
| 24> 
| 25> 
| 26>                          ****END OF INPUT****
================================================================================

                       *****************************
                       * Geometry Optimization Run *
                       *****************************

Geometry optimization settings:
Update method            Update   .... BFGS
Choice of coordinates    CoordSys .... (2022) Redundant Internals
Initial Hessian          InHess   .... Almloef's Model
Max. no of cycles        MaxIter  .... 50

Convergence Tolerances:
Energy Change            TolE     ....  5.0000e-06 Eh
Max. Gradient            TolMAXG  ....  3.0000e-04 Eh/bohr
RMS Gradient             TolRMSG  ....  1.0000e-04 Eh/bohr
Max. Displacement        TolMAXD  ....  4.0000e-03 bohr
RMS Displacement         TolRMSD  ....  2.0000e-03 bohr
Strict Convergence                .... False

------------------------------------------------------------------------------
                        ORCA OPTIMIZATION COORDINATE SETUP
------------------------------------------------------------------------------

The optimization will be done in redundant internal coordinates (2022)
Making redundant internal coordinates   ...  (2022 redundants) done
Evaluating the initial hessian          ...  (Almloef) done
Evaluating the coordinates              ...  done
Calculating the B-matrix                .... done
Calculating the G-matrix                .... done
The number of degrees of freedom        ....   57

    -----------------------------------------------------------------
                    Redundant Internal Coordinates


    -----------------------------------------------------------------
         Definition                    Initial Value    Approx d2E/dq
    -----------------------------------------------------------------
      1. B(C   8,F   1)                  1.3540         0.593519   
      2. B(C   8,O   7)                  1.4217         0.498064   
      3. B(C   8,F   0)                  1.3550         0.591349   
      4. B(C   9,O   7)                  1.4208         0.499802   
      5. B(C  10,F   3)                  1.3555         0.590237   
      6. B(C  10,C   8)                  1.5053         0.409073   
      7. B(C  10,F   2)                  1.3560         0.589116   
      8. B(C  11,F   6)                  1.3498         0.602772   
      9. B(C  11,F   5)                  1.3498         0.602722   
     10. B(C  11,C   9)                  1.5066         0.407038   
     11. B(C  11,F   4)                  1.3510         0.600088   
     12. B(H  12,C   9)                  1.0950         0.353550   
     13. B(H  13,C   9)                  1.0918         0.357731   
     14. B(H  14,C  10)                  1.0900         0.360042   
     15. A(C   8,O   7,C   9)          112.5529         0.396621   
     16. A(F   1,C   8,C  10)          110.0601         0.395702   
     17. A(F   1,C   8,O   7)          109.6106         0.407036   
     18. A(O   7,C   8,C  10)          110.3408         0.385424   
     19. A(F   0,C   8,C  10)          109.6731         0.395448   
     20. A(F   0,C   8,F   1)          107.9727         0.417791   
     21. A(F   0,C   8,O   7)          109.1410         0.406773   
     22. A(H  12,C   9,H  13)          109.4422         0.289702   
     23. A(C  11,C   9,H  13)          106.2311         0.328574   
     24. A(O   7,C   9,H  13)          111.9409         0.337905   
     25. A(C  11,C   9,H  12)          109.9391         0.327938   
     26. A(O   7,C   9,H  12)          110.1320         0.337243   
     27. A(O   7,C   9,C  11)          109.0757         0.385323   
     28. A(F   3,C  10,H  14)          109.0393         0.346384   
     29. A(F   2,C  10,H  14)          106.0711         0.346274   
     30. A(F   2,C  10,F   3)          106.8099         0.417097   
     31. A(F   3,C  10,C   8)          109.5154         0.395317   
     32. A(C   8,C  10,H  14)          115.3455         0.329195   
     33. A(F   2,C  10,C   8)          109.6887         0.395186   
     34. A(F   4,C  11,C   9)          110.6102         0.396120   
     35. A(F   5,C  11,F   6)          108.0967         0.420370   
     36. A(F   4,C  11,F   6)          107.7110         0.420042   
     37. A(F   4,C  11,F   5)          107.7389         0.420035   
     38. A(F   6,C  11,C   9)          111.2641         0.396430   
     39. A(F   5,C  11,C   9)          111.2680         0.396425   
     40. D(F   1,C   8,O   7,C   9)    -61.3572         0.019607   
     41. D(F   0,C   8,O   7,C   9)   -179.4173         0.019607   
     42. D(C  10,C   8,O   7,C   9)     60.0038         0.019607   
     43. D(H  13,C   9,O   7,C   8)    -62.0724         0.019748   
     44. D(H  12,C   9,O   7,C   8)     59.9242         0.019748   
     45. D(C  11,C   9,O   7,C   8)   -179.3399         0.019748   
     46. D(F   2,C  10,C   8,F   0)     58.2858         0.013258   
     47. D(F   3,C  10,C   8,O   7)     61.6286         0.013258   
     48. D(F   3,C  10,C   8,F   1)   -177.2779         0.013258   
     49. D(F   3,C  10,C   8,F   0)    -58.6311         0.013258   
     50. D(F   2,C  10,C   8,O   7)    178.5455         0.013258   
     51. D(F   2,C  10,C   8,F   1)    -60.3609         0.013258   
     52. D(F   4,C  11,C   9,H  13)    179.6130         0.013130   
     53. D(F   4,C  11,C   9,H  12)     61.2936         0.013130   
     54. D(F   4,C  11,C   9,O   7)    -59.5604         0.013130   
     55. D(F   5,C  11,C   9,H  13)     59.8979         0.013130   
     56. D(F   5,C  11,C   9,H  12)    -58.4215         0.013130   
     57. D(F   5,C  11,C   9,O   7)   -179.2756         0.013130   
    -----------------------------------------------------------------

Number of atoms                         .... 15
Number of degrees of freedom            .... 57


         *************************************************************
         *                GEOMETRY OPTIMIZATION CYCLE   1            *
         *************************************************************
---------------------------------
CARTESIAN COORDINATES (ANGSTROEM)
---------------------------------
  F      2.033600    0.958500   -1.198100
  F      1.407800    1.544600    0.818400
  F      3.147000   -0.576800    0.750400
  F      1.788800   -1.671100   -0.552300
  F     -2.751200    1.053800   -0.440600
  F     -3.139200   -0.465800    1.075500
  F     -2.385400   -1.048500   -0.891200
  O     -0.054900    0.427300   -0.507800
  C      1.305300    0.575500   -0.121600
  C     -0.889300    0.038200    0.574300
  C      1.841100   -0.724300    0.416300
  C     -2.303500   -0.111200    0.076600
  H     -0.850700    0.790200    1.369300
  H     -0.604200   -0.934500    0.980000
  H      1.341900   -1.101000    1.309100

----------------------------
CARTESIAN COORDINATES (A.U.)
----------------------------
  NO LB      ZA    FRAG     MASS         X           Y           Z
   0 F     9.0000    0    18.998    3.842947    1.811302   -2.264081
   1 F     9.0000    0    18.998    2.660356    2.918871    1.546552
   2 F     9.0000    0    18.998    5.946968   -1.089994    1.418050
   3 F     9.0000    0    18.998    3.380342   -3.157921   -1.043696
   4 F     9.0000    0    18.998   -5.199015    1.991393   -0.832613
   5 F     9.0000    0    18.998   -5.932228   -0.880234    2.032400
   6 F     9.0000    0    18.998   -4.507753   -1.981378   -1.684124
   7 O     8.0000    0    15.999   -0.103746    0.807480   -0.959603
   8 C     6.0000    0    12.011    2.466660    1.087537   -0.229791
   9 C     6.0000    0    12.011   -1.680533    0.072188    1.085270
  10 C     6.0000    0    12.011    3.479175   -1.368729    0.786693
  11 C     6.0000    0    12.011   -4.352984   -0.210138    0.144753
  12 H     1.0000    0     1.008   -1.607590    1.493262    2.587602
  13 H     1.0000    0     1.008   -1.141773   -1.765949    1.851932
  14 H     1.0000    0     1.008    2.535823   -2.080588    2.473840

--------------------------------
INTERNAL COORDINATES (ANGSTROEM)
--------------------------------
 F      0   0   0     0.000000000000     0.00000000     0.00000000
 F      1   0   0     2.191212244398     0.00000000     0.00000000
 F      1   2   0     2.719091373970    66.95269226     0.00000000
 F      3   1   2     2.176976577733    66.39338032   114.53912106
 F      2   1   3     4.373013450700    88.66211289   235.33513761
 F      5   2   1     2.181349896280    92.70835785   120.39000474
 F      5   2   1     2.180943669607    90.46710442    60.27552537
 O      1   2   3     2.262856553120    61.21437214   105.48298545
 C      2   1   3     1.353979711813    36.02899012   290.80489025
 C      8   1   2     1.420761267772   146.99999123   325.10918997
 C      4   3   1     1.355489391327    36.60314589   290.12731330
 C      7   5   2     1.349768772790    36.16333255    55.34989779
 H     10   8   1     1.094997242006   110.13203910    59.31889680
 H     10   8   1     1.091796588198   111.94085263   297.32238297
 H     11   4   3     1.090043746829   109.03927371   245.78398568

---------------------------
INTERNAL COORDINATES (A.U.)
---------------------------
 F      0   0   0     0.000000000000     0.00000000     0.00000000
 F      1   0   0     4.140791043207     0.00000000     0.00000000
 F      1   2   0     5.138338029912    66.95269226     0.00000000
 F      3   1   2     4.113889531877    66.39338032   114.53912106
 F      2   1   3     8.263797801776    88.66211289   235.33513761
 F      5   2   1     4.122153906226    92.70835785   120.39000474
 F      5   2   1     4.121386249067    90.46710442    60.27552537
 O      1   2   3     4.276179165747    61.21437214   105.48298545
 C      2   1   3     2.558650846211    36.02899012   290.80489025
 C      8   1   2     2.684849697771   146.99999123   325.10918997
 C      4   3   1     2.561503727044    36.60314589   290.12731330
 C      7   5   2     2.550693324693    36.16333255    55.34989779
 H     10   8   1     2.069244904790   110.13203910    59.31889680
 H     10   8   1     2.063196545643   111.94085263   297.32238297
 H     11   4   3     2.059884155499   109.03927371   245.78398568

---------------------
BASIS SET INFORMATION
---------------------
There are 4 groups of distinct atoms

 Group   1 Type F   : 18s5p2d1f contracted to 4s3p2d1f pattern {8811/311/11/1}
 Group   2 Type O   : 18s5p2d1f contracted to 4s3p2d1f pattern {8811/311/11/1}
 Group   3 Type C   : 18s5p2d1f contracted to 4s3p2d1f pattern {8811/311/11/1}
 Group   4 Type H   : 5s2p1d contracted to 3s2p1d pattern {311/11/1}

Atom   0F    basis set group =>   1
Atom   1F    basis set group =>   1
Atom   2F    basis set group =>   1
Atom   3F    basis set group =>   1
Atom   4F    basis set group =>   1
Atom   5F    basis set group =>   1
Atom   6F    basis set group =>   1
Atom   7O    basis set group =>   2
Atom   8C    basis set group =>   3
Atom   9C    basis set group =>   3
Atom  10C    basis set group =>   3
Atom  11C    basis set group =>   3
Atom  12H    basis set group =>   4
Atom  13H    basis set group =>   4
Atom  14H    basis set group =>   4
---------------------------------
AUXILIARY/J BASIS SET INFORMATION
---------------------------------
There are 4 groups of distinct atoms

 Group   1 Type F   : 12s5p4d2f1g contracted to 6s4p3d1f1g pattern {711111/2111/211/2/1}
 Group   2 Type O   : 12s5p4d2f1g contracted to 6s4p3d1f1g pattern {711111/2111/211/2/1}
 Group   3 Type C   : 12s5p4d2f1g contracted to 6s4p3d1f1g pattern {711111/2111/211/2/1}
 Group   4 Type H   : 5s2p1d contracted to 3s1p1d pattern {311/2/1}

Atom   0F    basis set group =>   1
Atom   1F    basis set group =>   1
Atom   2F    basis set group =>   1
Atom   3F    basis set group =>   1
Atom   4F    basis set group =>   1
Atom   5F    basis set group =>   1
Atom   6F    basis set group =>   1
Atom   7O    basis set group =>   2
Atom   8C    basis set group =>   3
Atom   9C    basis set group =>   3
Atom  10C    basis set group =>   3
Atom  11C    basis set group =>   3
Atom  12H    basis set group =>   4
Atom  13H    basis set group =>   4
Atom  14H    basis set group =>   4
------------------------------------------------------------------------------
                             ORCA STARTUP CALCULATIONS
                           -- RI-GTO INTEGRALS CHOSEN --
------------------------------------------------------------------------------
------------------------------------------------------------------------------
                   ___                                                        
                  /   \      - P O W E R E D   B Y -                         
                 /     \                                                     
                 |  |  |   _    _      __       _____    __    __             
                 |  |  |  | |  | |    /  \     |  _  \  |  |  /  |          
                  \  \/   | |  | |   /    \    | | | |  |  | /  /          
                 / \  \   | |__| |  /  /\  \   | |_| |  |  |/  /          
                |  |  |   |  __  | /  /__\  \  |    /   |      \           
                |  |  |   | |  | | |   __   |  |    \   |  |\   \          
                \     /   | |  | | |  |  |  |  | |\  \  |  | \   \       
                 \___/    |_|  |_| |__|  |__|  |_| \__\ |__|  \__/        
                                                                              
                      - O R C A' S   B I G   F R I E N D -                    
                                      &                                       
                       - I N T E G R A L  F E E D E R -                       
                                                                              
 v1 FN, 2020, v2 2021, v3 2022-2024                                           
------------------------------------------------------------------------------


----------------------
SHARK INTEGRAL PACKAGE
----------------------

Number of atoms                             ...     15
Number of basis functions                   ...    474
Number of shells                            ...    210
Maximum angular momentum                    ...      3
Integral batch strategy                     ... SHARK/LIBINT Hybrid
RI-J (if used) integral strategy            ... SPLIT-RIJ (Revised 2003 algorithm where possible)
Printlevel                                  ...      1
Contraction scheme used                     ... PARTIAL GENERAL contraction
Prescreening option                         ... SCHWARTZ
   Thresh                                   ... 2.500e-11
   Tcut                                     ... 2.500e-12
   Tpresel                                  ... 2.500e-12 
Coulomb Range Separation                    ... NOT USED
Exchange Range Separation                   ... NOT USED
Multipole approximations                    ... NOT USED
Finite Nucleus Model                        ... NOT USED
CABS basis                                  ... NOT available
Auxiliary Coulomb fitting basis             ... AVAILABLE
   # of basis functions in Aux-J            ...    621
   # of shells in Aux-J                     ...    195
   Maximum angular momentum in Aux-J        ...      4
Auxiliary J/K fitting basis                 ... NOT available
Auxiliary Correlation fitting basis         ... NOT available
Auxiliary 'external' fitting basis          ... NOT available

Checking pre-screening integrals            ... done (  0.0 sec) Dimension = 210
Save PGC pre-screening integrals            ... done (  0.0 sec) Dimension = 210
Calculate PGC overlap integrals             ... done (  0.0 sec) Dimension = 138
Calculating pre-screening integrals (ORCA)  ... done (  0.1 sec) Dimension = 138
Shell pair information
Shell pair cut-off parameter TPreSel        ...   2.5e-12
Total number of shell pairs                 ...     22155
Shell pairs after pre-screening             ...     13369
Total number of primitive shell pairs       ...     28965
Primitive shell pairs kept                  ...     16193
          la=0 lb=0:   3734 shell pairs
          la=1 lb=0:   3878 shell pairs
          la=1 lb=1:    789 shell pairs
          la=2 lb=0:   2178 shell pairs
          la=2 lb=1:    942 shell pairs
          la=2 lb=2:    293 shell pairs
          la=3 lb=0:    850 shell pairs
          la=3 lb=1:    411 shell pairs
          la=3 lb=2:    238 shell pairs
          la=3 lb=3:     56 shell pairs

Checking whether 4 symmetric matrices of dimension 474 fit in memory
:Max Core in MB      =   4096.00
 MB in use           =     17.75
 MB left             =   4078.25
 MB needed           =      3.44
 Data fit in memory  = YES
Calculating RI/J V-Matrix + Cholesky decomp.... done (  0.0 sec)
Calculating Nuclear repulsion               ... done (  0.0 sec) ENN=    847.814180921515 Eh

Diagonalization of the overlap matrix:
Smallest eigenvalue                        ... 7.148e-04
Time for diagonalization                   ...    0.027 sec
Threshold for overlap eigenvalues          ... 1.000e-07
Number of eigenvalues below threshold      ... 0
Time for construction of square roots      ...    0.008 sec
Total time needed                          ...    0.035 sec

-------------------
DFT GRID GENERATION
-------------------

General Integration Accuracy     IntAcc      ... 4.388
Radial Grid Type                 RadialGrid  ... OptM3 with GC (2021)
Angular Grid (max. ang.)         AngularGrid ... 4 (Lebedev-302)
Angular grid pruning method      GridPruning ... 4 (adaptive)
Weight generation scheme         WeightScheme... mBecke (2022)
Basis function cutoff            BFCut       ... 1.0000e-11
Integration weight cutoff        WCut        ... 1.0000e-14
Partially contracted basis set               ... off
Rotationally invariant grid construction     ... off
Angular grids for H and He will be reduced by one unit

Total number of grid points                  ...    82503
Total number of batches                      ...     1297
Average number of points per batch           ...       63
Average number of grid points per atom       ...     5500

---------------------
SHARK GRID GENERATION
---------------------

General Integration Accuracy     IntAcc      ... 4.388
Radial Grid Type                 RadialGrid  ... OptM3 with GC (2021)
Angular Grid (max. ang.)         AngularGrid ... 4 (Lebedev-302)
Angular grid pruning method      GridPruning ... 4 (adaptive)
Weight generation scheme         WeightScheme... mBecke (2022)
Basis function cutoff            BFCut       ... 1.0000e-11
Integration weight cutoff        WCut        ... 1.0000e-14
Partially contracted basis set               ... off
Rotationally invariant grid construction     ... off
Angular grids for H and He will be reduced by one unit
Steep s-basis detected: some atoms will have their radial
                        grid points doubled.

Total number of grid points                  ...   156353
Total number of batches                      ...     2453
Average number of points per batch           ...       63
Average number of grid points per atom       ...    10424

--------------------
COSX GRID GENERATION
--------------------

GRIDX 1
-------
General Integration Accuracy     IntAcc      ... 3.816
Radial Grid Type                 RadialGrid  ... OptM3 with GC (2021)
Angular Grid (max. ang.)         AngularGrid ... 1 (Lebedev-50)
Angular grid pruning method      GridPruning ... 4 (adaptive)
Weight generation scheme         WeightScheme... mBecke (2022)
Basis function cutoff            BFCut       ... 1.0000e-11
Integration weight cutoff        WCut        ... 1.0000e-14
Partially contracted basis set               ... on
Rotationally invariant grid construction     ... off
Angular grids for H and He will be reduced by one unit

Total number of grid points                  ...    10397
Total number of batches                      ...       88
Average number of points per batch           ...      118
Average number of grid points per atom       ...      693
UseSFitting                                  ... on

GRIDX 2
-------
General Integration Accuracy     IntAcc      ... 4.020
Radial Grid Type                 RadialGrid  ... OptM3 with GC (2021)
Angular Grid (max. ang.)         AngularGrid ... 2 (Lebedev-110)
Angular grid pruning method      GridPruning ... 4 (adaptive)
Weight generation scheme         WeightScheme... mBecke (2022)
Basis function cutoff            BFCut       ... 1.0000e-11
Integration weight cutoff        WCut        ... 1.0000e-14
Partially contracted basis set               ... on
Rotationally invariant grid construction     ... off
Angular grids for H and He will be reduced by one unit

Total number of grid points                  ...    24114
Total number of batches                      ...      196
Average number of points per batch           ...      123
Average number of grid points per atom       ...     1608
UseSFitting                                  ... on

GRIDX 3
-------
General Integration Accuracy     IntAcc      ... 4.338
Radial Grid Type                 RadialGrid  ... OptM3 with GC (2021)
Angular Grid (max. ang.)         AngularGrid ... 3 (Lebedev-194)
Angular grid pruning method      GridPruning ... 4 (adaptive)
Weight generation scheme         WeightScheme... mBecke (2022)
Basis function cutoff            BFCut       ... 1.0000e-11
Integration weight cutoff        WCut        ... 1.0000e-14
Partially contracted basis set               ... on
Rotationally invariant grid construction     ... off
Angular grids for H and He will be reduced by one unit

Total number of grid points                  ...    53457
Total number of batches                      ...      426
Average number of points per batch           ...      125
Average number of grid points per atom       ...     3564
UseSFitting                                  ... on
Grids setup in   3.2 sec
Initializing property integral containers    ... done (  0.0 sec)

SHARK setup successfully completed in   3.6 seconds

Maximum memory used throughout the entire STARTUP-calculation: 80.5 MB
-------------------------------------------------------------------------------
                                 ORCA GUESS
                   Start orbitals & Density for SCF / CASSCF
-------------------------------------------------------------------------------

------------
SCF SETTINGS
------------
Hamiltonian:
 Density Functional     Method          .... DFT(GTOs)
 Exchange Functional    Exchange        .... B88
   X-Alpha parameter    XAlpha          ....  0.666667
   Becke's b parameter  XBeta           ....  0.004200
 Correlation Functional Correlation     .... LYP
 LDA part of GGA corr.  LDAOpt          .... VWN-5
 Gradients option       PostSCFGGA      .... off
 Hybrid DFT is turned on
   Fraction HF Exchange ScalHFX         ....  0.200000
   Scaling of DF-GGA-X  ScalDFX         ....  0.720000
   Scaling of DF-GGA-C  ScalDFC         ....  0.810000
   Scaling of DF-LDA-C  ScalLDAC        ....  1.000000
   Perturbative correction              ....  0.000000
   NL short-range parameter             ....  4.800000
 RI-approximation to the Coulomb term is turned on
   Number of AuxJ basis functions       .... 621
   RIJ-COSX (HFX calculated with COS-X)).... on


General Settings:
 Integral files         IntName         .... HFE_347pcf2_gauche1
 Hartree-Fock type      HFTyp           .... RHF
 Total Charge           Charge          ....    0
 Multiplicity           Mult            ....    1
 Number of Electrons    NEL             ....   98
 Basis Dimension        Dim             ....  402
 Nuclear Repulsion      ENuc            ....    847.8141809215 Eh

Convergence Acceleration:
 AO-DIIS                CNVDIIS         .... on
   Start iteration      DIISMaxIt       ....    12
   Startup error        DIISStart       ....  0.200000
   # of expansion vecs  DIISMaxEq       ....     5
   Bias factor          DIISBfac        ....   1.050
   Max. coefficient     DIISMaxC        ....  10.000
 MO-DIIS                CNVKDIIS        .... off
 Trust-Rad. Augm. Hess. CNVTRAH         .... auto
   Auto Start mean grad. ratio tolernc. ....  1.125000
   Auto Start start iteration           ....    50
   Auto Start num. interpolation iter.  ....    10
   Max. Number of Micro iterations      ....    24
   Max. Number of Macro iterations      .... Maxiter - #DIIS iter
   Number of Davidson start vectors     ....     2
   Converg. threshold    (grad. norm)   ....   1.000e-05
   Grad. Scal. Fac. for Micro threshold ....   0.100
   Minimum threshold for Micro iter.    ....   1.000e-02
   NR start threshold (gradient norm)   ....   1.000e-04
   Initial trust radius                 ....   0.400
   Minimum AH scaling param. (alpha)    ....   1.000
   Maximum AH scaling param. (alpha)    .... 1000.000
   Quad. conv. algorithm                .... NR
   White noise on init. David. guess    .... on
   Maximum white noise                  ....   0.010
   Pseudo random numbers                .... off
   Inactive MOs                         .... canonical
   Orbital update algorithm             .... Taylor
   Preconditioner                       .... Diag
   Full preconditioner red. dimension   ....   250
 SOSCF                 CNVSOSCF           .... on
   Start iteration     SOSCFMaxIt         ....   150
   Startup grad/error  SOSCFStart         ....  0.003300
   Hessian update      SOSCFHessUp        .... L-BFGS
   Autom. constraints  SOSCFAutoConstrain .... off
 Level Shifting         CNVShift        .... on
   Level shift para.    LevelShift      ....    0.2500
   Turn off err/grad.   ShiftErr        ....    0.0010
 Zerner damping         CNVZerner       .... off
 Static damping         CNVDamp         .... on
   Fraction old density DampFac         ....    0.7000
   Max. Damping (<1)    DampMax         ....    0.9800
   Min. Damping (>=0)   DampMin         ....    0.0000
   Turn off err/grad.   DampErr         ....    0.1000

SCF Procedure:
 Maximum # iterations   MaxIter         ....   125
 SCF integral mode      SCFMode         .... Direct
   Integral package                     .... SHARK and LIBINT hybrid scheme
 Reset frequency        DirectResetFreq ....    20
 Integral Threshold     Thresh          ....  2.500e-11 Eh
 Primitive CutOff       TCut            ....  2.500e-12 Eh

Convergence Tolerance:
 Convergence Check Mode ConvCheckMode   .... Total+1el-Energy
 Convergence forced     ConvForced      .... 0
 Energy Change          TolE            ....  1.000e-08 Eh
 1-El. energy change                    ....  1.000e-05 Eh
 Orbital Gradient       TolG            ....  1.000e-05
 Orbital Rotation angle TolX            ....  1.000e-05
 DIIS Error             TolErr          ....  5.000e-07

------------------------------
INITIAL GUESS: MODEL POTENTIAL
------------------------------
Loading Hartree-Fock densities                     ... done
Calculating cut-offs                               ... done
Initializing the effective Hamiltonian             ... done
Setting up the integral package (SHARK)            ... done
Starting the Coulomb interaction                   ... done (   0.4 sec)
Making the grid                                    ... done (   0.2 sec)
Mapping shells                                     ... done
Starting the XC term evaluation                    ... done (   0.3 sec)
  promolecular density results
     # of electrons  =     98.000333046
     EX              =   -100.074939292
     EC              =     -3.644419031
     EX+EC           =   -103.719358323
Transforming the Hamiltonian                       ... done (   0.0 sec)
Diagonalizing the Hamiltonian                      ... done (   0.0 sec)
Back transforming the eigenvectors                 ... done (   0.0 sec)
Now organizing SCF variables                       ... done
                      ------------------
                      INITIAL GUESS DONE (   1.0 sec)
                      ------------------
             **** ENERGY FILE WAS UPDATED (HFE_347pcf2_gauche1.en.tmp) ****
Finished Guess after   1.1 sec
Maximum memory used throughout the entire GUESS-calculation: 40.9 MB

-------------------------------------------------------------------------------------------
                                      ORCA LEAN-SCF
                              memory conserving SCF solver
-------------------------------------------------------------------------------------------

----------------------------------------D-I-I-S--------------------------------------------
Iteration    Energy (Eh)           Delta-E    RMSDP     MaxDP     DIISErr   Damp  Time(sec)
-------------------------------------------------------------------------------------------
               ***  Starting incremental Fock matrix formation  ***
    1    -928.1017633321513358     0.00e+00  7.66e-04  3.90e-02  2.17e-01  0.700  10.3
    2    -928.2122312467876100    -1.10e-01  4.34e-04  2.19e-02  8.34e-02  0.700   4.6
                               ***Turning on AO-DIIS***
    3    -928.2489341166898384    -3.67e-02  1.38e-04  5.27e-03  2.62e-02  0.700   4.5
    4    -928.2737078601759322    -2.48e-02  2.45e-04  7.66e-03  1.30e-02  0.000   3.1
                              *** Initializing SOSCF ***
---------------------------------------S-O-S-C-F--------------------------------------
Iteration    Energy (Eh)           Delta-E    RMSDP     MaxDP     MaxGrad    Time(sec)
--------------------------------------------------------------------------------------
    5    -928.3307108586733420    -5.70e-02  6.57e-05  4.23e-03  2.55e-03     4.4
               *** Restarting incremental Fock matrix formation ***
    6    -928.3307858935710328    -7.50e-05  2.52e-05  9.35e-04  2.82e-04     9.6
    7    -928.3307835265230779     2.37e-06  1.10e-05  3.87e-04  3.40e-04     6.8
    8    -928.3307929419121365    -9.42e-06  2.31e-06  1.04e-04  3.30e-05     6.4
    9    -928.3307929468400062    -4.93e-09  1.38e-06  5.10e-05  2.88e-05     4.4
                 **** Energy Check signals convergence ****

               *****************************************************
               *                     SUCCESS                       *
               *           SCF CONVERGED AFTER   9 CYCLES          *
               *****************************************************

Recomputing exchange energy using gridx3       ... done (   19.827 sec)
Old exchange energy                            :    -20.083366672 Eh
New exchange energy                            :    -20.083402497 Eh
Exchange energy change after final integration :     -0.000035825 Eh
Total energy after final integration           :   -928.330828863 Eh
             **** ENERGY FILE WAS UPDATED (HFE_347pcf2_gauche1.en.tmp) ****

----------------
TOTAL SCF ENERGY
----------------

Total Energy       :       -928.33082886261343 Eh          -25261.16611 eV

Components:
Nuclear Repulsion  :        847.81418092151500 Eh           23070.19673 eV
Electronic Energy  :      -1776.14497395941180 Eh          -48331.36186 eV
One Electron Energy:      -2973.46545587948276 Eh          -80912.10855 eV
Two Electron Energy:       1197.32048192007096 Eh           32580.74669 eV

Virial components:
Potential Energy   :      -1851.96435560926147 Eh          -50394.51212 eV
Kinetic Energy     :        923.63352674664816 Eh           25133.34602 eV
Virial Ratio       :          2.00508567736006

DFT components:
N(Alpha)           :       49.000014158646 electrons
N(Beta)            :       49.000014158646 electrons
N(Total)           :       98.000028317292 electrons
E(X)               :      -80.009710606422 Eh       
E(C)               :       -4.263216589754 Eh       
E(XC)              :      -84.272927196176 Eh       

---------------
SCF CONVERGENCE
---------------

  Last Energy change         ...    4.9279e-09  Tolerance :   1.0000e-08
  Last MAX-Density change    ...    5.0964e-05  Tolerance :   1.0000e-07
  Last RMS-Density change    ...    1.3774e-06  Tolerance :   5.0000e-09
  Last DIIS Error            ...    2.5514e-03  Tolerance :   5.0000e-07
  Last Orbital Gradient      ...    2.8803e-05  Tolerance :   1.0000e-05
  Last Orbital Rotation      ...    2.4540e-05  Tolerance :   1.0000e-05


----------------
ORBITAL ENERGIES
----------------

  NO   OCC          E(Eh)            E(eV) 
   0   2.0000     -24.738326      -673.1641 
   1   2.0000     -24.737122      -673.1313 
   2   2.0000     -24.733670      -673.0374 
   3   2.0000     -24.729439      -672.9222 
   4   2.0000     -24.726699      -672.8477 
   5   2.0000     -24.723664      -672.7651 
   6   2.0000     -24.719847      -672.6612 
   7   2.0000     -19.206624      -522.6388 
   8   2.0000     -10.447519      -284.2914 
   9   2.0000     -10.434047      -283.9249 
  10   2.0000     -10.375618      -282.3349 
  11   2.0000     -10.286985      -279.9231 
  12   2.0000      -1.329371       -36.1740 
  13   2.0000      -1.314564       -35.7711 
  14   2.0000      -1.286318       -35.0025 
  15   2.0000      -1.245855       -33.9014 
  16   2.0000      -1.245560       -33.8934 
  17   2.0000      -1.239909       -33.7396 
  18   2.0000      -1.229705       -33.4620 
  19   2.0000      -1.105408       -30.0797 
  20   2.0000      -0.828893       -22.5553 
  21   2.0000      -0.791083       -21.5265 
  22   2.0000      -0.706707       -19.2305 
  23   2.0000      -0.675928       -18.3929 
  24   2.0000      -0.630213       -17.1490 
  25   2.0000      -0.621966       -16.9246 
  26   2.0000      -0.618875       -16.8404 
  27   2.0000      -0.613187       -16.6857 
  28   2.0000      -0.598503       -16.2861 
  29   2.0000      -0.578357       -15.7379 
  30   2.0000      -0.572170       -15.5695 
  31   2.0000      -0.567673       -15.4472 
  32   2.0000      -0.514847       -14.0097 
  33   2.0000      -0.491045       -13.3620 
  34   2.0000      -0.486979       -13.2514 
  35   2.0000      -0.484626       -13.1873 
  36   2.0000      -0.474885       -12.9223 
  37   2.0000      -0.469300       -12.7703 
  38   2.0000      -0.456610       -12.4250 
  39   2.0000      -0.450187       -12.2502 
  40   2.0000      -0.448608       -12.2072 
  41   2.0000      -0.443036       -12.0556 
  42   2.0000      -0.435718       -11.8565 
  43   2.0000      -0.431882       -11.7521 
  44   2.0000      -0.429058       -11.6752 
  45   2.0000      -0.427959       -11.6454 
  46   2.0000      -0.409302       -11.1377 
  47   2.0000      -0.376264       -10.2387 
  48   2.0000      -0.341794        -9.3007 
  49   0.0000       0.010665         0.2902 
  50   0.0000       0.032811         0.8928 
  51   0.0000       0.047091         1.2814 
  52   0.0000       0.057149         1.5551 
  53   0.0000       0.073065         1.9882 
  54   0.0000       0.115122         3.1326 
  55   0.0000       0.131044         3.5659 
  56   0.0000       0.159383         4.3370 
  57   0.0000       0.160415         4.3651 
  58   0.0000       0.172713         4.6998 
  59   0.0000       0.175753         4.7825 
*Only the first 10 virtual orbitals were printed.

                    ********************************
                    * MULLIKEN POPULATION ANALYSIS *
                    ********************************

-----------------------
MULLIKEN ATOMIC CHARGES
-----------------------
   0 F :   -0.148793
   1 F :   -0.178241
   2 F :   -0.180381
   3 F :   -0.181345
   4 F :   -0.166868
   5 F :   -0.167065
   6 F :   -0.164824
   7 O :   -0.270969
   8 C :    0.450185
   9 C :   -0.065070
  10 C :    0.305473
  11 C :    0.536306
  12 H :    0.107518
  13 H :    0.073078
  14 H :    0.050995
Sum of atomic charges:    0.0000000

--------------------------------
MULLIKEN REDUCED ORBITAL CHARGES
--------------------------------
  0 F s       :     3.889775  s :     3.889775
      pz      :     1.619945  p :     5.242558
      px      :     1.763961
      py      :     1.858652
      dz2     :     0.003840  d :     0.015687
      dxz     :     0.005568
      dyz     :     0.003243
      dx2y2   :     0.001540
      dxy     :     0.001496
      f0      :     0.000094  f :     0.000774
      f+1     :     0.000251
      f-1     :     0.000106
      f+2     :     0.000130
      f-2     :     0.000142
      f+3     :     0.000022
      f-3     :     0.000029

  1 F s       :     3.890606  s :     3.890606
      pz      :     1.700834  p :     5.271161
      px      :     1.896040
      py      :     1.674288
      dz2     :     0.002692  d :     0.015713
      dxz     :     0.001592
      dyz     :     0.006599
      dx2y2   :     0.002935
      dxy     :     0.001894
      f0      :     0.000074  f :     0.000761
      f+1     :     0.000022
      f-1     :     0.000241
      f+2     :     0.000219
      f-2     :     0.000099
      f+3     :     0.000042
      f-3     :     0.000062

  2 F s       :     3.885571  s :     3.885571
      pz      :     1.884384  p :     5.278548
      px      :     1.495836
      py      :     1.898327
      dz2     :     0.001942  d :     0.015522
      dxz     :     0.004094
      dyz     :     0.000323
      dx2y2   :     0.005788
      dxy     :     0.003374
      f0      :     0.000080  f :     0.000740
      f+1     :     0.000121
      f-1     :     0.000008
      f+2     :     0.000145
      f-2     :     0.000032
      f+3     :     0.000213
      f-3     :     0.000141

  3 F s       :     3.888076  s :     3.888076
      pz      :     1.688351  p :     5.276916
      px      :     1.896125
      py      :     1.692441
      dz2     :     0.003238  d :     0.015608
      dxz     :     0.001575
      dyz     :     0.006568
      dx2y2   :     0.002700
      dxy     :     0.001527
      f0      :     0.000082  f :     0.000745
      f+1     :     0.000024
      f-1     :     0.000245
      f+2     :     0.000215
      f-2     :     0.000090
      f+3     :     0.000034
      f-3     :     0.000056

  4 F s       :     3.886052  s :     3.886052
      pz      :     1.831386  p :     5.264250
      px      :     1.849796
      py      :     1.583068
      dz2     :     0.001915  d :     0.015783
      dxz     :     0.001316
      dyz     :     0.004341
      dx2y2   :     0.004269
      dxy     :     0.003941
      f0      :     0.000092  f :     0.000783
      f+1     :     0.000016
      f-1     :     0.000100
      f+2     :     0.000145
      f-2     :     0.000122
      f+3     :     0.000174
      f-3     :     0.000134

  5 F s       :     3.885882  s :     3.885882
      pz      :     1.671720  p :     5.264879
      px      :     1.726177
      py      :     1.866983
      dz2     :     0.003276  d :     0.015530
      dxz     :     0.005962
      dyz     :     0.002333
      dx2y2   :     0.002056
      dxy     :     0.001903
      f0      :     0.000081  f :     0.000774
      f+1     :     0.000246
      f-1     :     0.000070
      f+2     :     0.000150
      f-2     :     0.000150
      f+3     :     0.000034
      f-3     :     0.000043

  6 F s       :     3.886134  s :     3.886134
      pz      :     1.673301  p :     5.262079
      px      :     1.897455
      py      :     1.691324
      dz2     :     0.002925  d :     0.015825
      dxz     :     0.001959
      dyz     :     0.006930
      dx2y2   :     0.002364
      dxy     :     0.001647
      f0      :     0.000078  f :     0.000786
      f+1     :     0.000031
      f-1     :     0.000257
      f+2     :     0.000226
      f-2     :     0.000104
      f+3     :     0.000036
      f-3     :     0.000054

  7 O s       :     3.745798  s :     3.745798
      pz      :     1.495267  p :     4.486511
      px      :     1.215610
      py      :     1.775634
      dz2     :     0.008350  d :     0.036489
      dxz     :     0.010985
      dyz     :     0.004947
      dx2y2   :     0.007541
      dxy     :     0.004666
      f0      :     0.000199  f :     0.002172
      f+1     :     0.000286
      f-1     :     0.000140
      f+2     :     0.000448
      f-2     :     0.000251
      f+3     :     0.000485
      f-3     :     0.000363

  8 C s       :     2.977647  s :     2.977647
      pz      :     0.657941  p :     2.215435
      px      :     0.734844
      py      :     0.822649
      dz2     :     0.066722  d :     0.321614
      dxz     :     0.072911
      dyz     :     0.064107
      dx2y2   :     0.053215
      dxy     :     0.064659
      f0      :     0.006018  f :     0.035118
      f+1     :     0.004213
      f-1     :     0.005052
      f+2     :     0.006093
      f-2     :     0.006164
      f+3     :     0.003511
      f-3     :     0.004066

  9 C s       :     3.208597  s :     3.208597
      pz      :     0.854516  p :     2.741472
      px      :     0.886899
      py      :     1.000057
      dz2     :     0.025052  d :     0.104695
      dxz     :     0.020332
      dyz     :     0.020361
      dx2y2   :     0.026945
      dxy     :     0.012006
      f0      :     0.001738  f :     0.010305
      f+1     :     0.001574
      f-1     :     0.001026
      f+2     :     0.002511
      f-2     :     0.001698
      f+3     :     0.001221
      f-3     :     0.000538

 10 C s       :     3.095082  s :     3.095082
      pz      :     0.827233  p :     2.357239
      px      :     0.701360
      py      :     0.828646
      dz2     :     0.042356  d :     0.215734
      dxz     :     0.046125
      dyz     :     0.032586
      dx2y2   :     0.042958
      dxy     :     0.051711
      f0      :     0.003445  f :     0.026471
      f+1     :     0.003139
      f-1     :     0.003370
      f+2     :     0.004658
      f-2     :     0.003668
      f+3     :     0.003657
      f-3     :     0.004535

 11 C s       :     2.911041  s :     2.911041
      pz      :     0.664472  p :     2.176184
      px      :     0.866212
      py      :     0.645500
      dz2     :     0.070574  d :     0.335046
      dxz     :     0.056259
      dyz     :     0.079983
      dx2y2   :     0.060390
      dxy     :     0.067839
      f0      :     0.005789  f :     0.041423
      f+1     :     0.003839
      f-1     :     0.007765
      f+2     :     0.006781
      f-2     :     0.007938
      f+3     :     0.004332
      f-3     :     0.004978

 12 H s       :     0.858452  s :     0.858452
      pz      :     0.011899  p :     0.031283
      px      :     0.009842
      py      :     0.009543
      dz2     :     0.000703  d :     0.002746
      dxz     :     0.000630
      dyz     :     0.000600
      dx2y2   :     0.000334
      dxy     :     0.000480

 13 H s       :     0.890808  s :     0.890808
      pz      :     0.010636  p :     0.033296
      px      :     0.012121
      py      :     0.010539
      dz2     :     0.000338  d :     0.002818
      dxz     :     0.000317
      dyz     :     0.000810
      dx2y2   :     0.000656
      dxy     :     0.000697

 14 H s       :     0.914297  s :     0.914297
      pz      :     0.013771  p :     0.032167
      px      :     0.007989
      py      :     0.010406
      dz2     :     0.000658  d :     0.002541
      dxz     :     0.000586
      dyz     :     0.000774
      dx2y2   :     0.000345
      dxy     :     0.000178



                     *******************************
                     * LOEWDIN POPULATION ANALYSIS *
                     *******************************

----------------------
LOEWDIN ATOMIC CHARGES
----------------------
   0 F :    0.259684
   1 F :    0.246907
   2 F :    0.237661
   3 F :    0.240229
   4 F :    0.244537
   5 F :    0.246208
   6 F :    0.247354
   7 O :    0.329560
   8 C :   -0.687666
   9 C :   -0.087840
  10 C :   -0.434775
  11 C :   -0.751175
  12 H :   -0.020419
  13 H :   -0.028008
  14 H :   -0.042257

-------------------------------
LOEWDIN REDUCED ORBITAL CHARGES
-------------------------------
  0 F s       :     3.587976  s :     3.587976
      pz      :     1.618533  p :     5.122681
      px      :     1.720702
      py      :     1.783446
      dz2     :     0.006764  d :     0.028243
      dxz     :     0.009931
      dyz     :     0.006219
      dx2y2   :     0.002788
      dxy     :     0.002541
      f0      :     0.000194  f :     0.001417
      f+1     :     0.000398
      f-1     :     0.000217
      f+2     :     0.000262
      f-2     :     0.000246
      f+3     :     0.000049
      f-3     :     0.000051

  1 F s       :     3.586069  s :     3.586069
      pz      :     1.678727  p :     5.136627
      px      :     1.809261
      py      :     1.648639
      dz2     :     0.005207  d :     0.028971
      dxz     :     0.003233
      dyz     :     0.012209
      dx2y2   :     0.005346
      dxy     :     0.002977
      f0      :     0.000171  f :     0.001426
      f+1     :     0.000054
      f-1     :     0.000412
      f+2     :     0.000346
      f-2     :     0.000232
      f+3     :     0.000084
      f-3     :     0.000126

  2 F s       :     3.585694  s :     3.585694
      pz      :     1.809598  p :     5.146486
      px      :     1.520926
      py      :     1.815962
      dz2     :     0.003580  d :     0.028755
      dxz     :     0.007974
      dyz     :     0.000669
      dx2y2   :     0.010117
      dxy     :     0.006416
      f0      :     0.000151  f :     0.001404
      f+1     :     0.000230
      f-1     :     0.000015
      f+2     :     0.000284
      f-2     :     0.000086
      f+3     :     0.000316
      f-3     :     0.000320

  3 F s       :     3.586397  s :     3.586397
      pz      :     1.669049  p :     5.143299
      px      :     1.811656
      py      :     1.662594
      dz2     :     0.007024  d :     0.028680
      dxz     :     0.002794
      dyz     :     0.011414
      dx2y2   :     0.004881
      dxy     :     0.002567
      f0      :     0.000215  f :     0.001394
      f+1     :     0.000056
      f-1     :     0.000415
      f+2     :     0.000321
      f-2     :     0.000205
      f+3     :     0.000072
      f-3     :     0.000111

  4 F s       :     3.588292  s :     3.588292
      pz      :     1.767456  p :     5.137277
      px      :     1.777358
      py      :     1.592464
      dz2     :     0.002923  d :     0.028455
      dxz     :     0.002364
      dyz     :     0.007823
      dx2y2   :     0.007946
      dxy     :     0.007398
      f0      :     0.000149  f :     0.001439
      f+1     :     0.000024
      f-1     :     0.000209
      f+2     :     0.000255
      f-2     :     0.000229
      f+3     :     0.000286
      f-3     :     0.000288

  5 F s       :     3.587416  s :     3.587416
      pz      :     1.657846  p :     5.136730
      px      :     1.685254
      py      :     1.793630
      dz2     :     0.006172  d :     0.028226
      dxz     :     0.011064
      dyz     :     0.004384
      dx2y2   :     0.003654
      dxy     :     0.002953
      f0      :     0.000186  f :     0.001420
      f+1     :     0.000410
      f-1     :     0.000140
      f+2     :     0.000275
      f-2     :     0.000260
      f+3     :     0.000072
      f-3     :     0.000078

  6 F s       :     3.587766  s :     3.587766
      pz      :     1.654964  p :     5.134958
      px      :     1.812484
      py      :     1.667510
      dz2     :     0.004772  d :     0.028482
      dxz     :     0.003807
      dyz     :     0.012438
      dx2y2   :     0.004353
      dxy     :     0.003111
      f0      :     0.000154  f :     0.001440
      f+1     :     0.000075
      f-1     :     0.000429
      f+2     :     0.000350
      f-2     :     0.000254
      f+3     :     0.000076
      f-3     :     0.000102

  7 O s       :     3.260799  s :     3.260799
      pz      :     1.463473  p :     4.310561
      px      :     1.212509
      py      :     1.634579
      dz2     :     0.018492  d :     0.093276
      dxz     :     0.026617
      dyz     :     0.010897
      dx2y2   :     0.023204
      dxy     :     0.014066
      f0      :     0.000914  f :     0.005803
      f+1     :     0.001018
      f-1     :     0.000362
      f+2     :     0.001148
      f-2     :     0.000731
      f+3     :     0.000870
      f-3     :     0.000760

  8 C s       :     2.761194  s :     2.761194
      pz      :     0.804219  p :     2.578692
      px      :     0.848368
      py      :     0.926106
      dz2     :     0.212428  d :     1.125221
      dxz     :     0.240176
      dyz     :     0.253145
      dx2y2   :     0.225091
      dxy     :     0.194382
      f0      :     0.035850  f :     0.222558
      f+1     :     0.030904
      f-1     :     0.033397
      f+2     :     0.038043
      f-2     :     0.035681
      f+3     :     0.022528
      f-3     :     0.026156

  9 C s       :     2.697284  s :     2.697284
      pz      :     0.883818  p :     2.786764
      px      :     0.897139
      py      :     1.005807
      dz2     :     0.098917  d :     0.529836
      dxz     :     0.115721
      dyz     :     0.137721
      dx2y2   :     0.114948
      dxy     :     0.062529
      f0      :     0.011834  f :     0.073956
      f+1     :     0.015655
      f-1     :     0.007060
      f+2     :     0.011948
      f-2     :     0.012386
      f+3     :     0.008347
      f-3     :     0.006725

 10 C s       :     2.748377  s :     2.748377
      pz      :     0.903910  p :     2.617944
      px      :     0.800215
      py      :     0.913820
      dz2     :     0.156447  d :     0.893186
      dxz     :     0.189890
      dyz     :     0.174892
      dx2y2   :     0.199414
      dxy     :     0.172544
      f0      :     0.021212  f :     0.175267
      f+1     :     0.021229
      f-1     :     0.024612
      f+2     :     0.031612
      f-2     :     0.021292
      f+3     :     0.026890
      f-3     :     0.028421

 11 C s       :     2.763973  s :     2.763973
      pz      :     0.803070  p :     2.547903
      px      :     0.952548
      py      :     0.792286
      dz2     :     0.216895  d :     1.181577
      dxz     :     0.228747
      dyz     :     0.289133
      dx2y2   :     0.245454
      dxy     :     0.201349
      f0      :     0.036311  f :     0.257722
      f+1     :     0.028360
      f-1     :     0.046743
      f+2     :     0.039602
      f-2     :     0.046556
      f+3     :     0.028566
      f-3     :     0.031582

 12 H s       :     0.838406  s :     0.838406
      pz      :     0.058619  p :     0.152759
      px      :     0.035702
      py      :     0.058439
      dz2     :     0.007462  d :     0.029253
      dxz     :     0.005023
      dyz     :     0.008593
      dx2y2   :     0.004291
      dxy     :     0.003883

 13 H s       :     0.839066  s :     0.839066
      pz      :     0.041954  p :     0.158924
      px      :     0.042090
      py      :     0.074880
      dz2     :     0.003712  d :     0.030018
      dxz     :     0.002362
      dyz     :     0.008756
      dx2y2   :     0.008411
      dxy     :     0.006777

 14 H s       :     0.863618  s :     0.863618
      pz      :     0.069264  p :     0.149811
      px      :     0.044270
      py      :     0.036278
      dz2     :     0.008010  d :     0.028827
      dxz     :     0.007915
      dyz     :     0.007259
      dx2y2   :     0.003190
      dxy     :     0.002453



                      *****************************
                      * MAYER POPULATION ANALYSIS *
                      *****************************

  NA   - Mulliken gross atomic population
  ZA   - Total nuclear charge
  QA   - Mulliken gross atomic charge
  VA   - Mayer's total valence
  BVA  - Mayer's bonded valence
  FA   - Mayer's free valence

  ATOM       NA         ZA         QA         VA         BVA        FA
  0 F      9.1488     9.0000    -0.1488     1.2422     1.2422     0.0000
  1 F      9.1782     9.0000    -0.1782     1.1923     1.1923     0.0000
  2 F      9.1804     9.0000    -0.1804     1.1824     1.1824     0.0000
  3 F      9.1813     9.0000    -0.1813     1.1771     1.1771     0.0000
  4 F      9.1669     9.0000    -0.1669     1.2179     1.2179     0.0000
  5 F      9.1671     9.0000    -0.1671     1.2131     1.2131    -0.0000
  6 F      9.1648     9.0000    -0.1648     1.2189     1.2189    -0.0000
  7 O      8.2710     8.0000    -0.2710     2.1626     2.1626     0.0000
  8 C      5.5498     6.0000     0.4502     4.4113     4.4113     0.0000
  9 C      6.0651     6.0000    -0.0651     3.9098     3.9098     0.0000
 10 C      5.6945     6.0000     0.3055     4.2246     4.2246     0.0000
 11 C      5.4637     6.0000     0.5363     4.5762     4.5762     0.0000
 12 H      0.8925     1.0000     0.1075     0.9978     0.9978     0.0000
 13 H      0.9269     1.0000     0.0731     0.9962     0.9962     0.0000
 14 H      0.9490     1.0000     0.0510     0.9899     0.9899    -0.0000

  Mayer bond orders larger than 0.100000
B(  0-F ,  8-C ) :   1.2003 B(  1-F ,  8-C ) :   1.1175 B(  2-F , 10-C ) :   1.1356 
B(  3-F , 10-C ) :   1.1310 B(  4-F , 11-C ) :   1.1874 B(  5-F , 11-C ) :   1.1668 
B(  6-F , 11-C ) :   1.1857 B(  7-O ,  8-C ) :   1.1059 B(  7-O ,  9-C ) :   0.9777 
B(  8-C , 10-C ) :   0.9283 B(  9-C , 11-C ) :   0.9807 B(  9-C , 12-H ) :   0.9361 
B(  9-C , 13-H ) :   0.9313 B( 10-C , 14-H ) :   0.9616 

-------
TIMINGS
-------

Total SCF time: 0 days 0 hours 1 min 19 sec 

Total time                  ....      79.621 sec
Sum of individual times     ....      74.250 sec  ( 93.3%)

SCF preparation             ....       0.160 sec  (  0.2%)
Fock matrix formation       ....      73.481 sec  ( 92.3%)
  Startup                   ....       0.013 sec  (  0.0% of F)
  Split-RI-J                ....       5.214 sec  (  7.1% of F)
  Chain of spheres X        ....      65.088 sec  ( 88.6% of F)
  XC integration            ....       8.224 sec  ( 11.2% of F)
    XC Preparation          ....       0.000 sec  (  0.0% of XC)
    Basis function eval.    ....       2.195 sec  ( 26.7% of XC)
    Density eval.           ....       2.056 sec  ( 25.0% of XC)
    XC-Functional eval.     ....       0.194 sec  (  2.4% of XC)
    XC-Potential eval.      ....       3.501 sec  ( 42.6% of XC)
Diagonalization             ....       0.000 sec  (  0.0%)
Density matrix formation    ....       0.133 sec  (  0.2%)
Total Energy calculation    ....       0.011 sec  (  0.0%)
Population analysis         ....       0.033 sec  (  0.0%)
Orbital Transformation      ....       0.078 sec  (  0.1%)
Orbital Orthonormalization  ....       0.000 sec  (  0.0%)
DIIS solution               ....       0.232 sec  (  0.3%)
SOSCF solution              ....       0.123 sec  (  0.2%)
Finished LeanSCF after  79.7 sec

Maximum memory used throughout the entire LEANSCF-calculation: 59.9 MB

------------------------------------------------------------------------------
                         ORCA PROPERTY INTEGRAL CALCULATIONS
------------------------------------------------------------------------------

GBWName                                   ... HFE_347pcf2_gauche1.gbw
Number of atoms                           ...     15
Number of basis functions                 ...    474
Max core memory                           ...   4096 MB

Dipole integrals                          ... YES
Quadrupole integrals                      ...  NO
Linear momentum integrals                 ...  NO
Angular momentum integrals                ...  NO
Higher moments length integrals           ...  NO
Higher moments velocity integrals         ...  NO
Kinetic energy integrals                  ...  NO
GIAO right hand sides                     ...  NO
GIAO dipole derivative integrals          ...  NO
SOC integrals                             ...  NO
EPR diamagnetic integrals (GIAO)          ...  NO
EPR gauge integrals                       ...  NO
Field gradient integrals                  ...  NO (   0 nuclei)
Spin-dipole/Fermi contact integrals       ...  NO (   0 nuclei)
Contact density integrals                 ...  NO (   0 nuclei)
Nucleus-orbit integrals                   ...  NO (   0 nuclei)
Geometric perturbations                   ...  NO (  15 nuclei)

Choice of electric origin   ... Center of mass
Position of electric origin ... (  0.0036, -0.0093, -0.0132) 
Choice of magnetic origin   ... GIAO
Position of magnetic origin ... (  0.0000,  0.0000,  0.0000) 

Calculating integrals                     ... Electric Dipole (Length)     done (  0.0 sec)

Property integrals calculated in   0.0 sec

Maximum memory used throughout the entire PROPINT-calculation: 41.8 MB

-------------------------   --------------------
FINAL SINGLE POINT ENERGY      -928.330828862613
-------------------------   --------------------

------------------------------------------------------------------------------
                         ORCA SCF GRADIENT CALCULATION
------------------------------------------------------------------------------

Nuc. rep. gradient        (SHARK) ... done (  0.0 sec)
HCore & Overlap gradient  (SHARK) ... done (  0.4 sec)
Split-RIJ-J gradient      (SHARK) ... done (  3.0 sec)
COSX-gradient                     ... done ( 35.1 sec)
XC gradient                       ... done (  4.2 sec)

------------------
CARTESIAN GRADIENT
------------------

   1   F   :    0.016634298    0.004425923   -0.011383598
   2   F   :   -0.002170865    0.001349005   -0.000627608
   3   F   :   -0.003779552   -0.005119558   -0.001245838
   4   F   :    0.005861552   -0.001320983    0.000721247
   5   F   :    0.000410503    0.006170338   -0.002272456
   6   F   :   -0.007264472   -0.000640910    0.002682663
   7   F   :    0.000687158   -0.003991737   -0.006197737
   8   O   :   -0.027118957   -0.004505876   -0.001562343
   9   C   :    0.025168719   -0.009912482    0.019957870
  10   C   :   -0.002090223    0.000781546   -0.009716921
  11   C   :   -0.024558177    0.021972717   -0.007888923
  12   C   :    0.008982923   -0.007714724    0.014120800
  13   H   :    0.004138645    0.002578016    0.001369491
  14   H   :    0.001718378   -0.000674006    0.000106876
  15   H   :    0.003380069   -0.003397271    0.001936475

Difference to translation invariance:
           :    0.0000000000    0.0000000001   -0.0000000001

Difference to rotation invariance:
           :    0.0003179692    0.0006013815   -0.0002699300

Norm of the Cartesian gradient     ...    0.0648168542
RMS gradient                       ...    0.0096623261
MAX gradient                       ...    0.0271189572

-------
TIMINGS
-------

Total SCF gradient time     ....       42.625 sec

Densities                   ....       0.003 sec  (  0.0%)
One electron gradient       ....       0.357 sec  (  0.8%)
RI-J Coulomb gradient       ....       2.968 sec  (  7.0%)
COSX gradient               ....      35.122 sec  ( 82.4%)
XC gradient                 ....       4.173 sec  (  9.8%)

Maximum memory used throughout the entire SCFGRAD-calculation: 73.7 MB
------------------------------------------------------------------------------
                         ORCA GEOMETRY RELAXATION STEP
------------------------------------------------------------------------------

Reading the OPT-File                    .... done
Getting information on internals        .... done
Copying old internal coords+grads       .... done
Making the new internal coordinates     .... (2022 redundants) done
Validating the new internal coordinates .... (2022 redundants) done
Calculating the B-matrix                .... done
Calculating the G,G- and P matrices     .... done
Transforming gradient to internals      .... done
Projecting the internal gradient        .... done
Number of atoms                         ....  15
Number of internal coordinates          ....  57
Current Energy                          ....  -928.330828863 Eh
Current gradient norm                   ....     0.064816854 Eh/bohr
Maximum allowed component of the step   ....  0.300
Current trust radius                    ....  0.300
Evaluating the initial hessian          ....  (Almloef) done
Projecting the Hessian                  .... done
Forming the augmented Hessian           .... done
Diagonalizing the augmented Hessian     .... done
Last element of RFO vector              ....  0.967074957
Lowest eigenvalues of augmented Hessian:
 -0.011259169  0.013130191  0.013402667  0.019711773  0.020678686
Length of the computed step             ....  0.263156132
The final length of the internal step   ....  0.263156132
Converting the step to Cartesian space:
 Initial RMS(Int)=    0.0348558812
Transforming coordinates:
 Iter   0:  RMS(Cart)=    0.1517310073 RMS(Int)=    0.8244003583
 Iter   5:  RMS(Cart)=    0.0000015383 RMS(Int)=    0.0000010827
done
Storing new coordinates                 .... done

                                .--------------------.
          ----------------------|Geometry convergence|-------------------------
          Item                value                   Tolerance       Converged
          ---------------------------------------------------------------------
          RMS gradient        0.0084004005            0.0001000000      NO
          MAX gradient        0.0286896694            0.0003000000      NO
          RMS step            0.0348558812            0.0020000000      NO
          MAX step            0.1085121232            0.0040000000      NO
          -------------------------------------------------------------------------
          ........................................................
          Max(Bonds)      0.0247      Max(Angles)    4.22
          Max(Dihed)        6.22      Max(Improp)    0.00
          ---------------------------------------------------------------------

The optimization has not yet converged - more geometry cycles are needed


    ---------------------------------------------------------------------------
                         Redundant Internal Coordinates
                            (Angstroem and degrees)

        Definition                    Value    dE/dq     Step     New-Value
    ----------------------------------------------------------------------------
     1. B(C   8,F   1)                1.3540  0.000367 -0.0003    1.3537   
     2. B(C   8,O   7)                1.4217  0.020902 -0.0217    1.4000   
     3. B(C   8,F   0)                1.3550  0.019235 -0.0169    1.3381   
     4. B(C   9,O   7)                1.4208 -0.002876  0.0030    1.4237   
     5. B(C  10,F   3)                1.3555  0.000168 -0.0001    1.3553   
     6. B(C  10,C   8)                1.5053 -0.019586  0.0247    1.5299   
     7. B(C  10,F   2)                1.3560 -0.004499  0.0040    1.3600   
     8. B(C  11,F   6)                1.3498  0.007186 -0.0062    1.3436   
     9. B(C  11,F   5)                1.3498  0.006645 -0.0057    1.3441   
    10. B(C  11,C   9)                1.5066 -0.004770  0.0060    1.5127   
    11. B(C  11,F   4)                1.3510  0.006053 -0.0052    1.3457   
    12. B(H  12,C   9)                1.0950  0.002907 -0.0042    1.0908   
    13. B(H  13,C   9)                1.0918  0.001086 -0.0016    1.0902   
    14. B(H  14,C  10)                1.0900  0.001221 -0.0017    1.0883   
    15. A(C   8,O   7,C   9)          112.55 -0.028690    4.03    116.58   
    16. A(F   1,C   8,C  10)          110.06  0.007638   -0.49    109.57   
    17. A(F   1,C   8,O   7)          109.61  0.002523    0.45    110.06   
    18. A(O   7,C   8,C  10)          110.34 -0.026881    4.22    114.56   
    19. A(F   0,C   8,C  10)          109.67  0.001949   -0.63    109.04   
[...]
freq.     259.08  E(vib)   ...       0.34 
freq.     323.73  E(vib)   ...       0.28 
freq.     355.05  E(vib)   ...       0.26 
freq.     374.41  E(vib)   ...       0.24 
freq.     418.73  E(vib)   ...       0.21 
freq.     512.73  E(vib)   ...       0.16 
freq.     532.56  E(vib)   ...       0.15 
freq.     557.41  E(vib)   ...       0.14 
freq.     578.96  E(vib)   ...       0.13 
freq.     594.22  E(vib)   ...       0.13 
freq.     656.91  E(vib)   ...       0.10 
freq.     737.99  E(vib)   ...       0.08 
freq.     849.73  E(vib)   ...       0.05 
freq.     860.33  E(vib)   ...       0.05 
freq.     982.19  E(vib)   ...       0.03 
freq.    1084.44  E(vib)   ...       0.02 
freq.    1099.43  E(vib)   ...       0.02 
freq.    1125.85  E(vib)   ...       0.02 
freq.    1150.11  E(vib)   ...       0.02 
freq.    1168.35  E(vib)   ...       0.02 
freq.    1185.46  E(vib)   ...       0.02 
freq.    1209.50  E(vib)   ...       0.02 
freq.    1290.41  E(vib)   ...       0.01 
freq.    1298.08  E(vib)   ...       0.01 
freq.    1319.56  E(vib)   ...       0.01 
freq.    1377.99  E(vib)   ...       0.01 
freq.    1425.81  E(vib)   ...       0.01 
freq.    1445.72  E(vib)   ...       0.01 
freq.    1499.61  E(vib)   ...       0.01 
freq.    3045.67  E(vib)   ...       0.00 
freq.    3071.01  E(vib)   ...       0.00 
freq.    3107.70  E(vib)   ...       0.00 

------------
INNER ENERGY
------------

The inner energy is: U= E(el) + E(ZPE) + E(vib) + E(rot) + E(trans)
    E(el)   - is the total energy from the electronic structure calculation
              = E(kin-el) + E(nuc-el) + E(el-el) + E(nuc-nuc)
    E(ZPE)  - the the zero temperature vibrational energy from the frequency calculation
    E(vib)  - the the finite temperature correction to E(ZPE) due to population
              of excited vibrational states
    E(rot)  - is the rotational thermal energy
    E(trans)- is the translational thermal energy

Summary of contributions to the inner energy U:
Electronic energy                ...   -928.33864075 Eh
Zero point energy                ...      0.08264102 Eh      51.86 kcal/mol
Thermal vibrational correction   ...      0.00962430 Eh       6.04 kcal/mol
Thermal rotational correction    ...      0.00152006 Eh       0.95 kcal/mol
Thermal translational correction ...      0.00152006 Eh       0.95 kcal/mol
-----------------------------------------------------------------------
Total thermal energy                   -928.24333530 Eh


Summary of corrections to the electronic energy:
(perhaps to be used in another calculation)
Total thermal correction                  0.01266443 Eh       7.95 kcal/mol
Non-thermal (ZPE) correction              0.08264102 Eh      51.86 kcal/mol
-----------------------------------------------------------------------
Total correction                          0.09530545 Eh      59.80 kcal/mol


--------
ENTHALPY
--------

The enthalpy is H = U + kB*T
                kB is Boltzmann's constant
Total thermal energy              ...   -928.24333530 Eh 
Thermal Enthalpy correction       ...      0.00101341 Eh       0.64 kcal/mol
-----------------------------------------------------------------------
Total Enthalpy                    ...   -928.24232190 Eh


Note: Only C1 symmetry has been detected, increase convergence thresholds 
      if your molecule has a higher symmetry. Symmetry factor of 1.0 is   
      used for the rotational entropy correction. 
 

Note: Rotational entropy computed according to Herzberg 
Infrared and Raman Spectra, Chapter V,1, Van Nostrand Reinhold, 1945 
Point Group:  C1, Symmetry Number:   1  
Rotational constants in cm-1:     0.059739     0.015522     0.014575 

Vibrational entropy computed according to the QRRHO of S. Grimme
Chem.Eur.J. 2012 18 9955 using a reference frequency of 100.0 cm-1


-------
ENTROPY
-------

The entropy contributions are T*S = T*(S(el)+S(vib)+S(rot)+S(trans))
     S(el)   - electronic entropy
     S(vib)  - vibrational entropy
     S(rot)  - rotational entropy
     S(trans)- translational entropy
The entropies will be listed as multiplied by the temperature to get
units of energy

Electronic entropy                ...      0.00000000 Eh      0.00 kcal/mol
Vibrational entropy               ...      0.01745745 Eh     10.95 kcal/mol
Rotational entropy                ...      0.01599616 Eh     10.04 kcal/mol
Translational entropy             ...      0.02148743 Eh     13.48 kcal/mol
-----------------------------------------------------------------------
Final entropy term                ...      0.05494104 Eh     34.48 kcal/mol

In case the symmetry of your molecule has not been determined correctly
or in case you have a reason to use a different symmetry number we print 
out the resulting rotational entropy values for sn=1,12:

 non-linear molecules -----------------------------------
|  sn= 1 | S(rot)=       0.01599616 Eh     10.04 kcal/mol|
|  sn= 2 | S(rot)=       0.01529374 Eh      9.60 kcal/mol|
|  sn= 3 | S(rot)=       0.01488285 Eh      9.34 kcal/mol|
|  sn= 4 | S(rot)=       0.01459132 Eh      9.16 kcal/mol|
|  sn= 5 | S(rot)=       0.01436519 Eh      9.01 kcal/mol|
|  sn= 6 | S(rot)=       0.01418043 Eh      8.90 kcal/mol|
|  sn= 7 | S(rot)=       0.01402422 Eh      8.80 kcal/mol|
|  sn= 8 | S(rot)=       0.01388890 Eh      8.72 kcal/mol|
|  sn= 9 | S(rot)=       0.01376954 Eh      8.64 kcal/mol|
|  sn=10 | S(rot)=       0.01366277 Eh      8.57 kcal/mol|
|  sn=11 | S(rot)=       0.01356619 Eh      8.51 kcal/mol|
|  sn=12 | S(rot)=       0.01347801 Eh      8.46 kcal/mol|
 linear molecules ---------------------------------------
|  Dinfh | S(rot)=       0.01007279 Eh      6.32 kcal/mol|
|  Cinfv | S(rot)=       0.01077520 Eh      6.76 kcal/mol|
 --------------------------------------------------------


-------------------
GIBBS FREE ENERGY
-------------------

The Gibbs free energy is G = H - T*S

Total enthalpy                    ...   -928.24232190 Eh 
Total entropy correction          ...     -0.05494104 Eh    -34.48 kcal/mol
-----------------------------------------------------------------------
Final Gibbs free energy         ...   -928.29726293 Eh

For completeness - the Gibbs free energy minus the electronic energy
G-E(el)                           ...      0.04137782 Eh     25.96 kcal/mol


The first frequency considered to be a vibration is 6
The total number of vibrations considered is 39


--------------------------
THERMOCHEMISTRY AT 340.00K
--------------------------

Temperature         ...   340.00 K
Pressure            ...     1.00 atm
Total Mass          ...   200.05 AMU
Quasi RRHO          ...     True
Cut-Off Frequency   ...     1.00 cm^-1

Throughout the following assumptions are being made:
  (1) The electronic state is orbitally nondegenerate
  (2) There are no thermally accessible electronically excited states
  (3) Hindered rotations indicated by low frequency modes are not
      treated as such but are treated as vibrations and this may
      cause some error
  (4) All equations used are the standard statistical mechanics
      equations for an ideal gas
  (5) All vibrations are strictly harmonic

freq.      22.51  E(vib)   ...       0.64 
freq.      33.82  E(vib)   ...       0.63 
freq.      67.34  E(vib)   ...       0.58 
freq.      89.65  E(vib)   ...       0.56 
freq.     147.07  E(vib)   ...       0.49 
freq.     181.80  E(vib)   ...       0.45 
freq.     234.30  E(vib)   ...       0.40 
freq.     259.08  E(vib)   ...       0.37 
freq.     323.73  E(vib)   ...       0.32 
freq.     355.05  E(vib)   ...       0.29 
freq.     374.41  E(vib)   ...       0.28 
freq.     418.73  E(vib)   ...       0.25 
freq.     512.73  E(vib)   ...       0.19 
freq.     532.56  E(vib)   ...       0.18 
freq.     557.41  E(vib)   ...       0.17 
freq.     578.96  E(vib)   ...       0.16 
freq.     594.22  E(vib)   ...       0.15 
freq.     656.91  E(vib)   ...       0.12 
freq.     737.99  E(vib)   ...       0.10 
freq.     849.73  E(vib)   ...       0.07 
freq.     860.33  E(vib)   ...       0.07 
freq.     982.19  E(vib)   ...       0.04 
freq.    1084.44  E(vib)   ...       0.03 
freq.    1099.43  E(vib)   ...       0.03 
freq.    1125.85  E(vib)   ...       0.03 
freq.    1150.11  E(vib)   ...       0.03 
freq.    1168.35  E(vib)   ...       0.02 
freq.    1185.46  E(vib)   ...       0.02 
freq.    1209.50  E(vib)   ...       0.02 
freq.    1290.41  E(vib)   ...       0.02 
freq.    1298.08  E(vib)   ...       0.02 
freq.    1319.56  E(vib)   ...       0.01 
freq.    1377.99  E(vib)   ...       0.01 
freq.    1425.81  E(vib)   ...       0.01 
freq.    1445.72  E(vib)   ...       0.01 
freq.    1499.61  E(vib)   ...       0.01 
freq.    3045.67  E(vib)   ...       0.00 
freq.    3071.01  E(vib)   ...       0.00 
freq.    3107.70  E(vib)   ...       0.00 

------------
INNER ENERGY
------------

The inner energy is: U= E(el) + E(ZPE) + E(vib) + E(rot) + E(trans)
    E(el)   - is the total energy from the electronic structure calculation
              = E(kin-el) + E(nuc-el) + E(el-el) + E(nuc-nuc)
    E(ZPE)  - the the zero temperature vibrational energy from the frequency calculation
    E(vib)  - the the finite temperature correction to E(ZPE) due to population
              of excited vibrational states
    E(rot)  - is the rotational thermal energy
    E(trans)- is the translational thermal energy

Summary of contributions to the inner energy U:
Electronic energy                ...   -928.33864075 Eh
Zero point energy                ...      0.08264102 Eh      51.86 kcal/mol
Thermal vibrational correction   ...      0.01075570 Eh       6.75 kcal/mol
Thermal rotational correction    ...      0.00161507 Eh       1.01 kcal/mol
Thermal translational correction ...      0.00161507 Eh       1.01 kcal/mol
-----------------------------------------------------------------------
Total thermal energy                   -928.24201390 Eh


Summary of corrections to the electronic energy:
(perhaps to be used in another calculation)
Total thermal correction                  0.01398583 Eh       8.78 kcal/mol
Non-thermal (ZPE) correction              0.08264102 Eh      51.86 kcal/mol
-----------------------------------------------------------------------
Total correction                          0.09662685 Eh      60.63 kcal/mol


--------
ENTHALPY
--------

The enthalpy is H = U + kB*T
                kB is Boltzmann's constant
Total thermal energy              ...   -928.24201390 Eh 
Thermal Enthalpy correction       ...      0.00107674 Eh       0.68 kcal/mol
-----------------------------------------------------------------------
Total Enthalpy                    ...   -928.24093716 Eh


Note: Only C1 symmetry has been detected, increase convergence thresholds 
      if your molecule has a higher symmetry. Symmetry factor of 1.0 is   
      used for the rotational entropy correction. 
 

Note: Rotational entropy computed according to Herzberg 
Infrared and Raman Spectra, Chapter V,1, Van Nostrand Reinhold, 1945 
Point Group:  C1, Symmetry Number:   1  
Rotational constants in cm-1:     0.059739     0.015522     0.014575 

Vibrational entropy computed according to the QRRHO of S. Grimme
Chem.Eur.J. 2012 18 9955 using a reference frequency of 100.0 cm-1


-------
ENTROPY
-------

The entropy contributions are T*S = T*(S(el)+S(vib)+S(rot)+S(trans))
     S(el)   - electronic entropy
     S(vib)  - vibrational entropy
     S(rot)  - rotational entropy
     S(trans)- translational entropy
The entropies will be listed as multiplied by the temperature to get
units of energy

Electronic entropy                ...      0.00000000 Eh      0.00 kcal/mol
Vibrational entropy               ...      0.01959386 Eh     12.30 kcal/mol
Rotational entropy                ...      0.01709383 Eh     10.73 kcal/mol
Translational entropy             ...      0.02299358 Eh     14.43 kcal/mol
-----------------------------------------------------------------------
Final entropy term                ...      0.05968127 Eh     37.45 kcal/mol

In case the symmetry of your molecule has not been determined correctly
or in case you have a reason to use a different symmetry number we print 
out the resulting rotational entropy values for sn=1,12:

 non-linear molecules -----------------------------------
|  sn= 1 | S(rot)=       0.01709383 Eh     10.73 kcal/mol|
|  sn= 2 | S(rot)=       0.01634751 Eh     10.26 kcal/mol|
|  sn= 3 | S(rot)=       0.01591094 Eh      9.98 kcal/mol|
|  sn= 4 | S(rot)=       0.01560119 Eh      9.79 kcal/mol|
|  sn= 5 | S(rot)=       0.01536093 Eh      9.64 kcal/mol|
|  sn= 6 | S(rot)=       0.01516462 Eh      9.52 kcal/mol|
|  sn= 7 | S(rot)=       0.01499864 Eh      9.41 kcal/mol|
|  sn= 8 | S(rot)=       0.01485487 Eh      9.32 kcal/mol|
|  sn= 9 | S(rot)=       0.01472805 Eh      9.24 kcal/mol|
|  sn=10 | S(rot)=       0.01461461 Eh      9.17 kcal/mol|
|  sn=11 | S(rot)=       0.01451199 Eh      9.11 kcal/mol|
|  sn=12 | S(rot)=       0.01441830 Eh      9.05 kcal/mol|
 linear molecules ---------------------------------------
|  Dinfh | S(rot)=       0.01076761 Eh      6.76 kcal/mol|
|  Cinfv | S(rot)=       0.01151393 Eh      7.23 kcal/mol|
 --------------------------------------------------------


-------------------
GIBBS FREE ENERGY
-------------------

The Gibbs free energy is G = H - T*S

Total enthalpy                    ...   -928.24093716 Eh 
Total entropy correction          ...     -0.05968127 Eh    -37.45 kcal/mol
-----------------------------------------------------------------------
Final Gibbs free energy         ...   -928.30061843 Eh

For completeness - the Gibbs free energy minus the electronic energy
G-E(el)                           ...      0.03802232 Eh     23.86 kcal/mol


Maximum memory used throughout the entire PROP-calculation: 139.8 MB

--------------------------------
SUGGESTED CITATIONS FOR THIS RUN
--------------------------------

Below you find a list of papers that are relevant to this ORCA run
We neither can nor want to force you to cite these papers, but we appreciate if you do
You receive ORCA, which is the product of decades of hard work by many enthusiastic individuals, for free
The only thing we kindly ask in return is that you cite our papers,
We deeply appreciate it, if you show your appreciation for ORCA by not just citing the generic ORCA reference.

Please note that relegating all ORCA citations to the supporting information does *not* help us.
SI sections are not indexed - citations you put there will not count into any citation statistics
But we need these citations in order to attract the funding resources that allow us to do what we are doing

Therefore, if you are a happy ORCA user, please consider citing a few of the papers listed below in the main body of your paper

In addition to the list printed below, the program has created the file HFE_347pcf2_gauche1.bibtex that contains the list in bibtex format
You can import this file easily into all common literature databanks and citation aid programs

It goes without saying that in many instances, there are alternative algorithms to achieve similar
results as the ones you have gotten from ORCA. It is, of course, also the case that in some instances
ORCA just re-implements algorithms worked out by others. We are fully aware of that and we are also
fully appreciative of our colleagues work. Hence this citation list should not be read as indicating
that the listed papers, which are focused on our own work, are the only ones worth citing. It simply
meant to make it easier for users to cite ORCA specific papers. It is not a substitute for doing your
own literature research and citing the relevant literature in a scientifically appropriate manner.

List of essential papers. We consider these as the minimum necessary citations

  1. Neese, F.
     Software update: the ORCA program system, version 6.0
     WIRES Comput. Molec. Sci. 2025 15(1), e70019
     doi.org/10.1002/wcms.70019

List of papers to cite with high priority. The work reported in these papers was absolutely
necessary for this run to complete.
Our perspective: the developers of density functionals and basis sets usually get cited in chemistry papers
Good! But without the algorithms to do something with them, the functionals or basis sets would not do anything.
Hence, in our opinion, the algorithm design and method developments papers are equally worthy of getting cited

  1. Neese, F.
     An improvement of the resolution of the identity approximation for the formation of the Coulomb matrix
     J. Comp. Chem. 2003 24(14), 1740-1747
     doi.org/10.1002/jcc.10318
  2. Neese, F.; Wennmohs, F.; Hansen, A.; Becker, U.
     Efficient, approximate and parallel Hartree-Fock and hybrid DFT calculations. A 'chain-of-spheres' algorithm for the Hartree-Fock exchange
     Chem. Phys. 2009 356(1-3), 98-109
     doi.org/10.1016/j.chemphys.2008.10.036
  3. Bykov, D.; Petrenko, T.; Izsak, R.; Kossmann, S.; Becker, U.; Valeev, E.; Neese, F.
     Efficient implementation of the analytic second derivatives of Hartree-Fock and hybrid DFT energies: a detailed analysis of different approximations
     Molec. Phys. 2015 113 , 1961-1977
     doi.org/10.1080/00268976.2015.1025114
  4. Helmich-Paris, B.; de Souza, B.; Neese, F.; Izsák, R.
     An improved chain of spheres for exchange algorithm
     J. Chem. Phys. 2021 155(10), 104109
     doi.org/10.1063/5.0058766
  5. Neese, F.
     The SHARK Integral Generation and Digestion System
     J. Comp. Chem. 2022 44(3), 381
     doi.org/10.1002/jcc.26942

List of suggested additional citations. These are papers that are important in the 'surrounding' of 
of this run, or papers that preceded the highly important papers. If you like your results we are grateful for a citation.

  1. Izsak, R.; Neese, F.
     An overlap fitted chain of spheres exchange method
     J. Chem. Phys. 2011 135 , 144105
     doi.org/10.1063/1.3646921
  2. Izsak, R.; Hansen, A.; Neese, F.
     The resolution of identity and chain of spheres approximations for the LPNO-CCSD singles Fock term
     Molec. Phys. 2012 110 , 2413-2417
     doi.org/10.1080/00268976.2012.687466
  3. Neese, F.
     The ORCA program system
     WIRES Comput. Molec. Sci. 2012 2(1), 73-78
     doi.org/10.1002/wcms.81
  4. Izsak, R.; Neese, F.; Klopper, W.
     Robust fitting techniques in the chain of spheres approximation to the Fock exchange: The role of the complementary space
     J. Chem. Phys. 2013 139 , 
     doi.org/10.1063/1.4819264
  5. Neese, F.
     Software update: the ORCA program system, version 4.0
     WIRES Comput. Molec. Sci. 2018 8(1), 1-6
     doi.org/10.1002/wcms.1327
  6. Neese, F.; Wennmohs, F.; Becker, U.; Riplinger, C.
     The ORCA quantum chemistry program package
     J. Chem. Phys. 2020 152(22), 224108
     doi.org/10.1063/5.0004608
  7. Neese, F.
     Software update: The ORCA program system—Version 5.0
     WIRES Comput. Molec. Sci. 2022 12(1), e1606
     doi.org/10.1002/wcms.1606

List of optional additional citations

  1. Neese, F.
     Approximate second-order SCF convergence for spin unrestricted wavefunctions
     Chem. Phys. Lett. 2000 325(1-3), 93-98
     doi.org/10.1016/s0009-2614(00)00662-x

Timings for individual modules:

Sum of individual times          ...    70928.797 sec (=1182.147 min)
Startup calculation              ...      216.373 sec (=   3.606 min)   0.3 %
SCF iterations                   ...    10016.105 sec (= 166.935 min)  14.1 %
Property integrals               ...     7293.218 sec (= 121.554 min)  10.3 %
SCF Response                     ...      388.266 sec (=   6.471 min)   0.5 %
Property calculations            ...    52397.789 sec (= 873.296 min)  73.9 %
SCF Gradient evaluation          ...      616.928 sec (=  10.282 min)   0.9 %
Geometry relaxation              ...        0.118 sec (=   0.002 min)   0.0 %
                             ****ORCA TERMINATED NORMALLY****
TOTAL RUN TIME: 0 days 19 hours 42 minutes 11 seconds 752 msec
