
                                 *****************
                                 * O   R   C   A *
                                 *****************

                                            #,                                       
                                            ###                                      
                                            ####                                     
                                            #####                                    
                                            ######                                   
                                           ########,                                 
                                     ,,################,,,,,                         
                               ,,#################################,,                 
                          ,,##########################################,,             
                       ,#########################################, ''#####,          
                    ,#############################################,,   '####,        
                  ,##################################################,,,,####,       
                ,###########''''           ''''###############################       
              ,#####''   ,,,,##########,,,,          '''####'''          '####       
            ,##' ,,,,###########################,,,                        '##       
           ' ,,###''''                  '''############,,,                           
         ,,##''                                '''############,,,,        ,,,,,,###''
      ,#''                                            '''#######################'''  
     '                                                          ''''####''''         
             ,#######,   #######,   ,#######,      ##                                
            ,#'     '#,  ##    ##  ,#'     '#,    #''#        ,####,    ,#,          
            ##       ##  ##   ,#'  ##            #'  '#       #'       ,# #          
            ##       ##  #######   ##           ,######,      #####,      #          
            '#,     ,#'  ##    ##  '#,     ,#' ,#      #,     #,   #      #          
             '#######'   ##     ##  '#######'  #'      '#     '####' #    #          



                #########################################################
                #                        -***-                          #
                #          Department of theory and spectroscopy        #
                #                                                       #
                #                      Frank Neese                      #
                #                                                       #
                #     Directorship, Architecture, Infrastructure        #
                #                    SHARK, DRIVERS                     #
                #        Core code/Algorithms in most modules           #
                #                                                       #
                #        Max Planck Institute fuer Kohlenforschung      #
                #                Kaiser Wilhelm Platz 1                 #
                #                 D-45470 Muelheim/Ruhr                 #
                #                      Germany                          #
                #                                                       #
                #                  All rights reserved                  #
                #                        -***-                          #
                #########################################################


                         Program Version 6.1.1  -  RELEASE   -
                                (GIT: $487d211c$)
                          ($2025-11-21 10:33:24 +0100$)


 With contributions from (in alphabetic order):
[Max-Planck-Institut fuer Kohlenforschung]                               
  Daniel Aravena         : Magnetic Suceptibility                        
  Michael Atanasov       : Ab Initio Ligand Field Theory (pilot matlab implementation)
  Alexander A. Auer      : GIAO ZORA, VPT2 properties, NMR spectrum      
  Ute Becker             : All parallelization in ORCA, NUMFREQ, NUMCALC 
  Giovanni Bistoni       : ED, misc. LED, open-shell LED, HFLD           
  Dmytro Bykov           : pre 5.0 version of the SCF Hessian            
  Marcos Casanova-Páez   : Triplet and SCS-CIS(D). UHF-(DLPNO)-IP/EA/STEOM-CCSD. UHF-CVS-IP/STEOM-CCSD   
  Vijay G. Chilkuri      : MRCI spin determinant printing, contributions to CSF-ICE 
  Pauline Colinet        : FMM embedding                                 
  Dipayan Datta          : RHF DLPNO-CCSD density                        
  Achintya Kumar Dutta   : EOM-CC, STEOM-CC                              
  Nicolas Foglia         : Exact transition moments, OPA infrastructure, MCD improvements    
  Dmitry Ganyushin       : Spin-Orbit,Spin-Spin,Magnetic field MRCI      
  Miquel Garcia-Rates    : C-PCM and meta-GGA Hessian, CCSD/C-PCM, Gaussian charge scheme 
  Tiago L. C. Gouveia    : GS-ROHF, GS-ROCIS                             
  Yang Guo               : DLPNO-NEVPT2, F12-NEVPT2, CIM, IAO-localization        
  Andreas Hansen         : Spin unrestricted coupled pair/coupled cluster methods 
  Ingolf Harden          : AUTO-CI MPn and infrastructure                
  Benjamin Helmich-Paris : MC-RPA, TRAH-(SCF,CASSCF), AVAS, COSX integrals, SCF dyn. polar., MC-PDFT, srDFT 
  Lee Huntington         : MR-EOM, pCC                                   
  Robert Izsak           : Overlap fitted RIJCOSX, COSX-SCS-MP3, EOM     
  Riya Kayal             : Wick's Theorem for AUTO-CI, AUTO-CI UHF-CCSDT 
  Emily Kempfer          : AUTO-CI RHF CISDT and CCSDT, approximate NEVPT4
  Christian Kollmar      : KDIIS, OOCD, Brueckner-CCSD(T), CCSD density, CASPT2, CASPT2-K, improved NEVPT2 
  Axel Koslowski         : Symmetry handling                             
  Simone Kossmann        : meta-GGA functionals, TD-DFT gradient, OOMP2, (MP2 Hessian; deprecated post 5.0) 
  Lucas Lang             : DCDCAS, Hyperfine gauge corrections, ICE-SOC+SSC
  Marvin Lechner         : AUTO-CI (C++ implementation), FIC-MRCC        
  Spencer Leger          : CASSCF response                               
  Dagmar Lenk            : GEPOL surface, SMD, ORCA-2-JSON               
  Dimitrios Liakos       : Extrapolation schemes; Compound Job, Property file
  Dimitrios Manganas     : Further ROCIS development; embedding schemes. LFT, Crystal Embedding 
  Dimitrios Pantazis     : SARC Basis sets                               
  Anastasios Papadopoulos: AUTO-CI, single reference methods and gradients 
  Taras Petrenko         : pre 6.0 DFT Hessian and TD-DFT gradient,  ECA, NRVS 
  Petra Pikulova         : Analytic Raman intensities                    
  Peter Pinski           : DLPNO-MP2, DLPNO-MP2 Gradient                 
  Shashank Vittal Rao    : ES-AILFT, MagRelax                            
  Christoph Reimann      : Effective Core Potentials                     
  Marius Retegan         : Local ZFS, SOC                                
  Christoph Riplinger    : Optimizer, TS searches, QM/MM, DLPNO-CCSD(T), (RO)-DLPNO pert. Triples 
  Michael Roemelt        : Original ROCIS implementation, recursive CI coupling coefficients
  Masaaki Saitow         : Open-shell DLPNO-CCSD energy and density      
  Barbara Sandhoefer     : DKH picture change effects                    
  Yorick L. A. Schmerwitz: GMF and freeze-and-release deltaSCF, NEB S-IDPP initial path                    
  Kantharuban Sivalingam : CASSCF convergence/infrastructure, NEVPT2, NEVPT3, NEVPT4(SD), FIC-MRCI and CEPA variants
  Bernardo de Souza      : ESD, SOC TD-DFT                               
  Georgi L. Stoychev     : AutoAux, RI-MP2 NMR, DLPNO-MP2 response, X2C  
  Van Anh Tran           : RI-MP2 g-tensors                              
  Willem Van den Heuvel  : Paramagnetic NMR                              
  Zikuan Wang            : NOTCH, Electric field optimization            
  Frank Wennmohs         : Technical directorship and infrastructure     
  Hang Xu                : AUTO-CI-Response properties                   
                                                                         
[FACCTs GmbH]                                                            
  Markus Bursch, Nicolas Foglia, Miquel Garcia-Rates, Ingolf Harden, Hagen Neugebauer, Anastasios Papadopoulos, 
  Christoph Riplinger, Bernardo de Souza, Georgi L. Stoychev                                                    
                                                                 
  APM, various basis sets, CI-OPT, improved COSX, DLPNO-Multilevel,           
  DOCKER, DRACO, updates on ESD, Fragmentator, GOAT, IRC, LR-CPCM, L-BFGS, MBIS, meta-GGA TD-DFT gradient, ML-optimized integration grids, 
  MM, NACMEs, nearIR, NEB, NEB-TS, NL-DFT gradient (VV10), 2- and 3-layer-ONIOM, interface openCOSMO-RS, QMMM,   
  Crystal-QMMM, RESP, rigid body optimization, SF, symmetry and pop. for TD-DFT, various functionals, SOLVATOR                                   
                                                                         
[Other institutions]                                                     
  V. Asgeirsson          : NEB                                           
  Christoph Bannwarth    : sTDA-DFT, sTD-DFT, PBEh-3c, B97-3c, D3        
  Giovanni Bistoni       : ETS/NOCV, ADLD/ADEX, COVALED                  
  Martin Brehm           : Molecular dynamics                            
  Ronald Cardenas        : ETS/NOCV                                      
  Martina Colucci        : COVALED                                       
  Sebastian Ehlert       : rSCAN, r2SCAN, r2SCAN-3c, D4, dhf basis sets  
  Marvin Friede          : D4 for Fr, Ra, Ac-Lr                          
  Lars Goerigk           : TD-DFT with DH, B97 family of functionals     
  Stefan Grimme          : VdW corrections, initial TS optimization, DFT functionals, gCP, sTDA/sTD-DF 
  Waldemar Hujo          : DFT-NL                                        
  H. Jonsson             : NEB                                           
  Holger Kruse           : gCP                                           
  Marcel Mueller         : wB97X-3c, vDZP basis set                      
  Hagen Neugebauer       : wr2SCAN, Native XTB                           
  Gianluca Regni         : ADLD/ADEX                                     
  Tobias Risthaus        : pre 6.0 range-separated hybrid DFT and stability analysis
  Lukas Wittmann         : regularized MP2, r2SCAN double-hybrids, wr2SCAN        
                                                                         
We gratefully acknowledge several colleagues who have allowed us to      
interface, adapt or use parts of their codes:                            
  Ed Valeev, F. Pavosevic, A. Kumar             : LibInt (2-el integral package), F12 methods 
  Garnet Chan, S. Sharma, J. Yang, R. Olivares  : DMRG                   
  Ulf Ekstrom                                   : XCFun DFT Library      
  Mihaly Kallay                                 : mrcc  (arbitrary order and MRCC methods)
  Frank Weinhold                                : gennbo (NPA and NBO analysis)           
  Simon Mueller                                 : openCOSMO-RS                            
  Christopher J. Cramer and Donald G. Truhlar   : smd solvation model                     
  S Lehtola, MJT Oliveira, MAL Marques          : LibXC Library                           
  Liviu Ungur et al                             : ANISO software                          


 Your calculation uses the libint2 library for the computation of 2-el integrals
 For citations please refer to: http://libint.valeyev.net

 Your ORCA version has been built with support for libXC version: 7.0.0
 For citations please refer to: https://libxc.gitlab.io

 This ORCA versions uses:
   CBLAS   interface :  Fast vector & matrix operations
   LAPACKE interface :  Fast linear algebra routines
   SCALAPACK package :  Parallel linear algebra routines
   Shared memory     :  Shared parallel matrices
   BLAS/LAPACK       :  OpenBLAS 0.3.29  USE64BITINT DYNAMIC_ARCH NO_AFFINITY Cooperlake SINGLE_THREADED
        Core in use  :  Cooperlake
   Copyright (c) 2011-2014, The OpenBLAS Project


  ***********************************
  * Starting time: Wed Feb 18 16:38:49 2026
  * Host name:     Breado
  * Process ID:    15373
  * Working dir.:  /home/bread/other_data/B3LYP_cc-pVTZ
  ***********************************

Warning: RI is on but no J-basis has been assigned. Assigning Def2/J (nothing to worry about!)
================================================================================

----- Orbital basis set information -----
Your calculation utilizes the basis: cc-pVTZ 
       H, B-Ne : Obtained from the ccRepo (grant-hill.group.shef.ac.uk/ccrepo) Feb. 2017
                 T. H. Dunning, Jr., J. Chem. Phys. 90, 1007 (1989)
            He : Obtained from the ccRepo (grant-hill.group.shef.ac.uk/ccrepo) Feb. 2017
                 D. E. Woon, T. H. Dunning, Jr., J. Chem. Phys. 100, 2975 (1994)
  Li-Be, Na-Mg : Obtained from the ccRepo (grant-hill.group.shef.ac.uk/ccrepo) Feb. 2017
                 B. P. Prascher, D. E. Woon, K. A. Peterson, T. H. Dunning, Jr., A. K. Wilson, Theor. Chem. Acc. 128, 69 (2011)
         Al-Ar : Obtained from the ccRepo (grant-hill.group.shef.ac.uk/ccrepo) Feb. 2017
                 D. E. Woon, T. H. Dunning, Jr., J. Chem. Phys. 98, 1358 (1993)
            Ca : Obtained from the Peterson Research Group Website (tyr0.chem.wsu.edu/~kipeters) Feb. 2017
                 J. Koput, K. A. Peterson, J. Phys. Chem. 106, 9595 (2002)
         Sc-Zn : Obtained from the ccRepo (grant-hill.group.shef.ac.uk/ccrepo) Feb. 2017
                 N. B. Balabanov, K. A. Peterson, J. Chem. Phys. 123, 064107 (2005)
                 N. B. Balabanov, K. A. Peterson, J. Chem. Phys. 125, 074110 (2006)
         Ga-Kr : Obtained from the ccRepo (grant-hill.group.shef.ac.uk/ccrepo) Feb. 2017
                 A. K. Wilson, D. E. Woon, K. A. Peterson, T. H. Dunning, Jr., J. Chem. Phys. 110, 7667 (1999)
             Y : Obtained from the ccRepo (grant-hill.group.shef.ac.uk/ccrepo) Feb. 2017
                 K. A. Peterson, D. Figgen, M. Dolg, H. Stoll, J. Chem. Phys. 126, 124101 (2007)
        Ag, Au : Obtained from the Peterson Research Group Website (tyr0.chem.wsu.edu/~kipeters) Feb. 2017
                 K. A. Peterson, C. Puzzarini, Theor. Chem. Acc. 114, 283 (2005)

----- AuxJ basis set information -----
Your calculation utilizes the auxiliary basis: def2/J
   H-Rn: F. Weigend, Phys. Chem. Chem. Phys. 8, 1057 (2006).
   Fr-Lr: K. Eichkorn, F. Weigend, O. Treutler, R. Ahlrichs; Theor. Chem. Acc. 97, 119 (1997).

================================================================================
                                        WARNINGS
                       Please study these warnings very carefully!
================================================================================


WARNING: Geometry Optimization
  ===> : Switching off AutoStart
         For restart on a previous wavefunction, please use MOREAD

================================================================================
                                       INPUT FILE
================================================================================
NAME = HFE_347pcf2_anti.inp
|  1> # avogadro generated ORCA input file 
|  2> # Basic Mode
|  3> # 
|  4> ! B3LYP cc-pVTZ OPT FREQ 
|  5> % FREQ TEMP 305, 320, 340 END
|  6> 
|  7> * xyz 0 1
|  8>    F        1.28530       -1.62240        0.56030
|  9>    F        1.38880       -0.59790       -1.37380
| 10>    F        2.29800        1.67070       -0.14090
| 11>    F        3.53230       -0.08800        0.20960
| 12>    F       -2.56250        0.28010        1.34490
| 13>    F       -3.46870       -0.64150       -0.41230
| 14>    F       -2.46550        1.29230       -0.58450
| 15>    O       -0.03940        0.17810        0.20870
| 16>    C        1.23030       -0.41010       -0.04230
| 17>    C       -1.11330       -0.61630       -0.27520
| 18>    C        2.32920        0.47050        0.48930
| 19>    C       -2.41470        0.08470        0.01630
| 20>    H       -1.10420       -1.59410        0.21820
| 21>    H       -1.01120       -0.76410       -1.35560
| 22>    H        2.25350        0.63630        1.56730
| 23> *
| 24> 
| 25> 
| 26>                          ****END OF INPUT****
================================================================================

                       *****************************
                       * Geometry Optimization Run *
                       *****************************

Geometry optimization settings:
Update method            Update   .... BFGS
Choice of coordinates    CoordSys .... (2022) Redundant Internals
Initial Hessian          InHess   .... Almloef's Model
Max. no of cycles        MaxIter  .... 50

Convergence Tolerances:
Energy Change            TolE     ....  5.0000e-06 Eh
Max. Gradient            TolMAXG  ....  3.0000e-04 Eh/bohr
RMS Gradient             TolRMSG  ....  1.0000e-04 Eh/bohr
Max. Displacement        TolMAXD  ....  4.0000e-03 bohr
RMS Displacement         TolRMSD  ....  2.0000e-03 bohr
Strict Convergence                .... False

------------------------------------------------------------------------------
                        ORCA OPTIMIZATION COORDINATE SETUP
------------------------------------------------------------------------------

The optimization will be done in redundant internal coordinates (2022)
Making redundant internal coordinates   ...  (2022 redundants) done
Evaluating the initial hessian          ...  (Almloef) done
Evaluating the coordinates              ...  done
Calculating the B-matrix                .... done
Calculating the G-matrix                .... done
The number of degrees of freedom        ....   57

    -----------------------------------------------------------------
                    Redundant Internal Coordinates


    -----------------------------------------------------------------
         Definition                    Initial Value    Approx d2E/dq
    -----------------------------------------------------------------
      1. B(C   8,F   1)                  1.3540         0.593501   
      2. B(C   8,O   7)                  1.4217         0.498154   
      3. B(C   8,F   0)                  1.3549         0.591461   
      4. B(C   9,O   7)                  1.4207         0.499848   
      5. B(C  10,F   3)                  1.3556         0.590035   
      6. B(C  10,C   8)                  1.5052         0.409204   
      7. B(C  10,F   2)                  1.3560         0.589235   
      8. B(C  11,F   6)                  1.3498         0.602802   
      9. B(C  11,F   5)                  1.3498         0.602686   
     10. B(C  11,C   9)                  1.5067         0.407024   
     11. B(C  11,F   4)                  1.3510         0.600049   
     12. B(H  12,C   9)                  1.0953         0.353194   
     13. B(H  13,C   9)                  1.0952         0.353245   
     14. B(H  14,C  10)                  1.0933         0.355761   
     15. A(C   8,O   7,C   9)          112.5571         0.396640   
     16. A(F   1,C   8,C  10)          110.0593         0.395722   
     17. A(F   1,C   8,O   7)          109.6064         0.407047   
     18. A(O   7,C   8,C  10)          110.3420         0.385457   
     19. A(F   0,C   8,C  10)          109.6787         0.395483   
     20. A(F   0,C   8,F   1)          107.9693         0.417803   
     21. A(F   0,C   8,O   7)          109.1426         0.406799   
     22. A(H  12,C   9,H  13)          108.8524         0.289084   
     23. A(C  11,C   9,H  13)          109.5217         0.327889   
     24. A(O   7,C   9,H  13)          109.9364         0.337200   
     25. A(C  11,C   9,H  12)          109.5961         0.327881   
     26. A(O   7,C   9,H  12)          109.8442         0.337192   
     27. A(O   7,C   9,C  11)          109.0777         0.385327   
     28. A(F   3,C  10,H  14)          109.1096         0.345669   
     29. A(F   2,C  10,H  14)          108.8104         0.345590   
     30. A(F   2,C  10,F   3)          106.8101         0.417087   
     31. A(F   3,C  10,C   8)          109.5141         0.395316   
     32. A(C   8,C  10,H  14)          112.7309         0.328563   
     33. A(F   2,C  10,C   8)          109.6878         0.395222   
     34. A(F   4,C  11,C   9)          110.6131         0.396113   
     35. A(F   5,C  11,F   6)          108.0963         0.420369   
     36. A(F   4,C  11,F   6)          107.7112         0.420040   
     37. A(F   4,C  11,F   5)          107.7371         0.420026   
     38. A(F   6,C  11,C   9)          111.2635         0.396432   
     39. A(F   5,C  11,C   9)          111.2676         0.396418   
     40. D(F   1,C   8,O   7,C   9)     58.6402         0.019614   
     41. D(F   0,C   8,O   7,C   9)    -59.4143         0.019614   
     42. D(C  10,C   8,O   7,C   9)    179.9982         0.019614   
     43. D(H  13,C   9,O   7,C   8)    -59.2366         0.019752   
     44. D(H  12,C   9,O   7,C   8)     60.5210         0.019752   
     45. D(C  11,C   9,O   7,C   8)   -179.3404         0.019752   
     46. D(F   2,C  10,C   8,F   0)    178.2766         0.013266   
     47. D(F   3,C  10,C   8,O   7)   -178.3733         0.013266   
     48. D(F   3,C  10,C   8,F   1)    -57.2848         0.013266   
     49. D(F   3,C  10,C   8,F   0)     61.3607         0.013266   
     50. D(F   2,C  10,C   8,O   7)    -61.4574         0.013266   
     51. D(F   2,C  10,C   8,F   1)     59.6311         0.013266   
     52. D(F   4,C  11,C   9,H  13)   -179.9158         0.013129   
     53. D(F   4,C  11,C   9,H  12)     60.7346         0.013129   
     54. D(F   4,C  11,C   9,O   7)    -59.5568         0.013129   
     55. D(F   5,C  11,C   9,H  13)     60.3697         0.013129   
     56. D(F   5,C  11,C   9,H  12)    -58.9800         0.013129   
     57. D(F   5,C  11,C   9,O   7)   -179.2714         0.013129   
    -----------------------------------------------------------------

Number of atoms                         .... 15
Number of degrees of freedom            .... 57


         *************************************************************
         *                GEOMETRY OPTIMIZATION CYCLE   1            *
         *************************************************************
---------------------------------
CARTESIAN COORDINATES (ANGSTROEM)
---------------------------------
  F      1.285300   -1.622400    0.560300
  F      1.388800   -0.597900   -1.373800
  F      2.298000    1.670700   -0.140900
  F      3.532300   -0.088000    0.209600
  F     -2.562500    0.280100    1.344900
  F     -3.468700   -0.641500   -0.412300
  F     -2.465500    1.292300   -0.584500
  O     -0.039400    0.178100    0.208700
  C      1.230300   -0.410100   -0.042300
  C     -1.113300   -0.616300   -0.275200
  C      2.329200    0.470500    0.489300
  C     -2.414700    0.084700    0.016300
  H     -1.104200   -1.594100    0.218200
  H     -1.011200   -0.764100   -1.355600
  H      2.253500    0.636300    1.567300

----------------------------
CARTESIAN COORDINATES (A.U.)
----------------------------
  NO LB      ZA    FRAG     MASS         X           Y           Z
   0 F     9.0000    0    18.998    2.428865   -3.065892    1.058814
   1 F     9.0000    0    18.998    2.624452   -1.129867   -2.596106
   2 F     9.0000    0    18.998    4.342591    3.157165   -0.266262
   3 F     9.0000    0    18.998    6.675080   -0.166296    0.396087
   4 F     9.0000    0    18.998   -4.842423    0.529312    2.541493
   5 F     9.0000    0    18.998   -6.554893   -1.212259   -0.779134
   6 F     9.0000    0    18.998   -4.659120    2.442093   -1.104545
   7 O     8.0000    0    15.999   -0.074455    0.336560    0.394386
   8 C     6.0000    0    12.011    2.324930   -0.774977   -0.079935
   9 C     6.0000    0    12.011   -2.103832   -1.164638   -0.520053
  10 C     6.0000    0    12.011    4.401550    0.889116    0.924643
  11 C     6.0000    0    12.011   -4.563122    0.160060    0.030803
  12 H     1.0000    0     1.008   -2.086636   -3.012412    0.412338
  13 H     1.0000    0     1.008   -1.910891   -1.443940   -2.561713
  14 H     1.0000    0     1.008    4.258498    1.202433    2.961768

--------------------------------
INTERNAL COORDINATES (ANGSTROEM)
--------------------------------
 F      0   0   0     0.000000000000     0.00000000     0.00000000
 F      1   0   0     2.191131057240     0.00000000     0.00000000
 F      2   1   0     2.737377031028    90.32221911     0.00000000
 F      3   2   1     2.177009974713    65.87822430    57.47134963
 F      1   2   3     4.363561418154    89.80003295    81.40692274
 F      5   1   2     2.181352066953    92.13639085    60.38889849
 F      5   1   2     2.180949838946    90.23279504     0.27539853
 O      1   2   3     2.262797582640    61.21372454    63.40901423
 C      2   1   3     1.353987939385    36.02974168   332.88082369
 C      8   1   2     1.420736351333    92.89588178    91.36341887
 C      4   3   2     1.355582513165    36.60073560   290.26676087
 C      7   5   1     1.349755177801    36.16371501    54.82331469
 H     10   8   1     1.095271295159   109.84416045    31.33842367
 H     10   8   1     1.095232126081   109.93641604   271.58082554
 H     11   4   3     1.093299652428   109.10960233   242.53891516

---------------------------
INTERNAL COORDINATES (A.U.)
---------------------------
 F      0   0   0     0.000000000000     0.00000000     0.00000000
 F      1   0   0     4.140637621712     0.00000000     0.00000000
 F      2   1   0     5.172892913929    90.32221911     0.00000000
 F      3   2   1     4.113952643022    65.87822430    57.47134963
 F      1   2   3     8.245936048856    89.80003295    81.40692274
 F      5   1   2     4.122158008204    92.13639085    60.38889849
 F      5   1   2     4.121397907428    90.23279504     0.27539853
 O      1   2   3     4.276067727688    61.21372454    63.40901423
 C      2   1   3     2.558666394070    36.02974168   332.88082369
 C      8   1   2     2.684802612527    92.89588178    91.36341887
 C      4   3   2     2.561679701815    36.60073560   290.26676087
 C      7   5   1     2.550667633886    36.16371501    54.82331469
 H     10   8   1     2.069762790196   109.84416045    31.33842367
 H     10   8   1     2.069688771365   109.93641604   271.58082554
 H     11   4   3     2.066036925401   109.10960233   242.53891516

---------------------
BASIS SET INFORMATION
---------------------
There are 4 groups of distinct atoms

 Group   1 Type F   : 18s5p2d1f contracted to 4s3p2d1f pattern {8811/311/11/1}
 Group   2 Type O   : 18s5p2d1f contracted to 4s3p2d1f pattern {8811/311/11/1}
 Group   3 Type C   : 18s5p2d1f contracted to 4s3p2d1f pattern {8811/311/11/1}
 Group   4 Type H   : 5s2p1d contracted to 3s2p1d pattern {311/11/1}

Atom   0F    basis set group =>   1
Atom   1F    basis set group =>   1
Atom   2F    basis set group =>   1
Atom   3F    basis set group =>   1
Atom   4F    basis set group =>   1
Atom   5F    basis set group =>   1
Atom   6F    basis set group =>   1
Atom   7O    basis set group =>   2
Atom   8C    basis set group =>   3
Atom   9C    basis set group =>   3
Atom  10C    basis set group =>   3
Atom  11C    basis set group =>   3
Atom  12H    basis set group =>   4
Atom  13H    basis set group =>   4
Atom  14H    basis set group =>   4
---------------------------------
AUXILIARY/J BASIS SET INFORMATION
---------------------------------
There are 4 groups of distinct atoms

 Group   1 Type F   : 12s5p4d2f1g contracted to 6s4p3d1f1g pattern {711111/2111/211/2/1}
 Group   2 Type O   : 12s5p4d2f1g contracted to 6s4p3d1f1g pattern {711111/2111/211/2/1}
 Group   3 Type C   : 12s5p4d2f1g contracted to 6s4p3d1f1g pattern {711111/2111/211/2/1}
 Group   4 Type H   : 5s2p1d contracted to 3s1p1d pattern {311/2/1}

Atom   0F    basis set group =>   1
Atom   1F    basis set group =>   1
Atom   2F    basis set group =>   1
Atom   3F    basis set group =>   1
Atom   4F    basis set group =>   1
Atom   5F    basis set group =>   1
Atom   6F    basis set group =>   1
Atom   7O    basis set group =>   2
Atom   8C    basis set group =>   3
Atom   9C    basis set group =>   3
Atom  10C    basis set group =>   3
Atom  11C    basis set group =>   3
Atom  12H    basis set group =>   4
Atom  13H    basis set group =>   4
Atom  14H    basis set group =>   4
------------------------------------------------------------------------------
                             ORCA STARTUP CALCULATIONS
                           -- RI-GTO INTEGRALS CHOSEN --
------------------------------------------------------------------------------
------------------------------------------------------------------------------
                   ___                                                        
                  /   \      - P O W E R E D   B Y -                         
                 /     \                                                     
                 |  |  |   _    _      __       _____    __    __             
                 |  |  |  | |  | |    /  \     |  _  \  |  |  /  |          
                  \  \/   | |  | |   /    \    | | | |  |  | /  /          
                 / \  \   | |__| |  /  /\  \   | |_| |  |  |/  /          
                |  |  |   |  __  | /  /__\  \  |    /   |      \           
                |  |  |   | |  | | |   __   |  |    \   |  |\   \          
                \     /   | |  | | |  |  |  |  | |\  \  |  | \   \       
                 \___/    |_|  |_| |__|  |__|  |_| \__\ |__|  \__/        
                                                                              
                      - O R C A' S   B I G   F R I E N D -                    
                                      &                                       
                       - I N T E G R A L  F E E D E R -                       
                                                                              
 v1 FN, 2020, v2 2021, v3 2022-2024                                           
------------------------------------------------------------------------------


----------------------
SHARK INTEGRAL PACKAGE
----------------------

Number of atoms                             ...     15
Number of basis functions                   ...    474
Number of shells                            ...    210
Maximum angular momentum                    ...      3
Integral batch strategy                     ... SHARK/LIBINT Hybrid
RI-J (if used) integral strategy            ... SPLIT-RIJ (Revised 2003 algorithm where possible)
Printlevel                                  ...      1
Contraction scheme used                     ... PARTIAL GENERAL contraction
Prescreening option                         ... SCHWARTZ
   Thresh                                   ... 2.500e-11
   Tcut                                     ... 2.500e-12
   Tpresel                                  ... 2.500e-12 
Coulomb Range Separation                    ... NOT USED
Exchange Range Separation                   ... NOT USED
Multipole approximations                    ... NOT USED
Finite Nucleus Model                        ... NOT USED
CABS basis                                  ... NOT available
Auxiliary Coulomb fitting basis             ... AVAILABLE
   # of basis functions in Aux-J            ...    621
   # of shells in Aux-J                     ...    195
   Maximum angular momentum in Aux-J        ...      4
Auxiliary J/K fitting basis                 ... NOT available
Auxiliary Correlation fitting basis         ... NOT available
Auxiliary 'external' fitting basis          ... NOT available

Checking pre-screening integrals            ... done (  0.0 sec) Dimension = 210
Save PGC pre-screening integrals            ... done (  0.0 sec) Dimension = 210
Calculate PGC overlap integrals             ... done (  0.0 sec) Dimension = 138
Calculating pre-screening integrals (ORCA)  ... done (  0.1 sec) Dimension = 138
Shell pair information
Shell pair cut-off parameter TPreSel        ...   2.5e-12
Total number of shell pairs                 ...     22155
Shell pairs after pre-screening             ...     13106
Total number of primitive shell pairs       ...     28965
Primitive shell pairs kept                  ...     15846
          la=0 lb=0:   3662 shell pairs
          la=1 lb=0:   3801 shell pairs
          la=1 lb=1:    773 shell pairs
          la=2 lb=0:   2146 shell pairs
          la=2 lb=1:    920 shell pairs
          la=2 lb=2:    285 shell pairs
          la=3 lb=0:    835 shell pairs
          la=3 lb=1:    399 shell pairs
          la=3 lb=2:    229 shell pairs
          la=3 lb=3:     56 shell pairs

Checking whether 4 symmetric matrices of dimension 474 fit in memory
:Max Core in MB      =   4096.00
 MB in use           =     17.46
 MB left             =   4078.54
 MB needed           =      3.44
 Data fit in memory  = YES
Calculating RI/J V-Matrix + Cholesky decomp.... done (  0.0 sec)
Calculating Nuclear repulsion               ... done (  0.0 sec) ENN=    840.796475296706 Eh

Diagonalization of the overlap matrix:
Smallest eigenvalue                        ... 6.771e-04
Time for diagonalization                   ...    0.034 sec
Threshold for overlap eigenvalues          ... 1.000e-07
Number of eigenvalues below threshold      ... 0
Time for construction of square roots      ...    0.007 sec
Total time needed                          ...    0.042 sec

-------------------
DFT GRID GENERATION
-------------------

General Integration Accuracy     IntAcc      ... 4.388
Radial Grid Type                 RadialGrid  ... OptM3 with GC (2021)
Angular Grid (max. ang.)         AngularGrid ... 4 (Lebedev-302)
Angular grid pruning method      GridPruning ... 4 (adaptive)
Weight generation scheme         WeightScheme... mBecke (2022)
Basis function cutoff            BFCut       ... 1.0000e-11
Integration weight cutoff        WCut        ... 1.0000e-14
Partially contracted basis set               ... off
Rotationally invariant grid construction     ... off
Angular grids for H and He will be reduced by one unit

Total number of grid points                  ...    82588
Total number of batches                      ...     1298
Average number of points per batch           ...       63
Average number of grid points per atom       ...     5506

---------------------
SHARK GRID GENERATION
---------------------

General Integration Accuracy     IntAcc      ... 4.388
Radial Grid Type                 RadialGrid  ... OptM3 with GC (2021)
Angular Grid (max. ang.)         AngularGrid ... 4 (Lebedev-302)
Angular grid pruning method      GridPruning ... 4 (adaptive)
Weight generation scheme         WeightScheme... mBecke (2022)
Basis function cutoff            BFCut       ... 1.0000e-11
Integration weight cutoff        WCut        ... 1.0000e-14
Partially contracted basis set               ... off
Rotationally invariant grid construction     ... off
Angular grids for H and He will be reduced by one unit
Steep s-basis detected: some atoms will have their radial
                        grid points doubled.

Total number of grid points                  ...   156511
Total number of batches                      ...     2454
Average number of points per batch           ...       63
Average number of grid points per atom       ...    10434

--------------------
COSX GRID GENERATION
--------------------

GRIDX 1
-------
General Integration Accuracy     IntAcc      ... 3.816
Radial Grid Type                 RadialGrid  ... OptM3 with GC (2021)
Angular Grid (max. ang.)         AngularGrid ... 1 (Lebedev-50)
Angular grid pruning method      GridPruning ... 4 (adaptive)
Weight generation scheme         WeightScheme... mBecke (2022)
Basis function cutoff            BFCut       ... 1.0000e-11
Integration weight cutoff        WCut        ... 1.0000e-14
Partially contracted basis set               ... on
Rotationally invariant grid construction     ... off
Angular grids for H and He will be reduced by one unit

Total number of grid points                  ...    10449
Total number of batches                      ...       90
Average number of points per batch           ...      116
Average number of grid points per atom       ...      697
UseSFitting                                  ... on

GRIDX 2
-------
General Integration Accuracy     IntAcc      ... 4.020
Radial Grid Type                 RadialGrid  ... OptM3 with GC (2021)
Angular Grid (max. ang.)         AngularGrid ... 2 (Lebedev-110)
Angular grid pruning method      GridPruning ... 4 (adaptive)
Weight generation scheme         WeightScheme... mBecke (2022)
Basis function cutoff            BFCut       ... 1.0000e-11
Integration weight cutoff        WCut        ... 1.0000e-14
Partially contracted basis set               ... on
Rotationally invariant grid construction     ... off
Angular grids for H and He will be reduced by one unit

Total number of grid points                  ...    24259
Total number of batches                      ...      196
Average number of points per batch           ...      123
Average number of grid points per atom       ...     1617
UseSFitting                                  ... on

GRIDX 3
-------
General Integration Accuracy     IntAcc      ... 4.338
Radial Grid Type                 RadialGrid  ... OptM3 with GC (2021)
Angular Grid (max. ang.)         AngularGrid ... 3 (Lebedev-194)
Angular grid pruning method      GridPruning ... 4 (adaptive)
Weight generation scheme         WeightScheme... mBecke (2022)
Basis function cutoff            BFCut       ... 1.0000e-11
Integration weight cutoff        WCut        ... 1.0000e-14
Partially contracted basis set               ... on
Rotationally invariant grid construction     ... off
Angular grids for H and He will be reduced by one unit

Total number of grid points                  ...    53583
Total number of batches                      ...      427
Average number of points per batch           ...      125
Average number of grid points per atom       ...     3572
UseSFitting                                  ... on
Grids setup in   3.0 sec
Initializing property integral containers    ... done (  0.0 sec)

SHARK setup successfully completed in   3.5 seconds

Maximum memory used throughout the entire STARTUP-calculation: 79.8 MB
-------------------------------------------------------------------------------
                                 ORCA GUESS
                   Start orbitals & Density for SCF / CASSCF
-------------------------------------------------------------------------------

------------
SCF SETTINGS
------------
Hamiltonian:
 Density Functional     Method          .... DFT(GTOs)
 Exchange Functional    Exchange        .... B88
   X-Alpha parameter    XAlpha          ....  0.666667
   Becke's b parameter  XBeta           ....  0.004200
 Correlation Functional Correlation     .... LYP
 LDA part of GGA corr.  LDAOpt          .... VWN-5
 Gradients option       PostSCFGGA      .... off
 Hybrid DFT is turned on
   Fraction HF Exchange ScalHFX         ....  0.200000
   Scaling of DF-GGA-X  ScalDFX         ....  0.720000
   Scaling of DF-GGA-C  ScalDFC         ....  0.810000
   Scaling of DF-LDA-C  ScalLDAC        ....  1.000000
   Perturbative correction              ....  0.000000
   NL short-range parameter             ....  4.800000
 RI-approximation to the Coulomb term is turned on
   Number of AuxJ basis functions       .... 621
   RIJ-COSX (HFX calculated with COS-X)).... on


General Settings:
 Integral files         IntName         .... HFE_347pcf2_anti
 Hartree-Fock type      HFTyp           .... RHF
 Total Charge           Charge          ....    0
 Multiplicity           Mult            ....    1
 Number of Electrons    NEL             ....   98
 Basis Dimension        Dim             ....  402
 Nuclear Repulsion      ENuc            ....    840.7964752967 Eh

Convergence Acceleration:
 AO-DIIS                CNVDIIS         .... on
   Start iteration      DIISMaxIt       ....    12
   Startup error        DIISStart       ....  0.200000
   # of expansion vecs  DIISMaxEq       ....     5
   Bias factor          DIISBfac        ....   1.050
   Max. coefficient     DIISMaxC        ....  10.000
 MO-DIIS                CNVKDIIS        .... off
 Trust-Rad. Augm. Hess. CNVTRAH         .... auto
   Auto Start mean grad. ratio tolernc. ....  1.125000
   Auto Start start iteration           ....    50
   Auto Start num. interpolation iter.  ....    10
   Max. Number of Micro iterations      ....    24
   Max. Number of Macro iterations      .... Maxiter - #DIIS iter
   Number of Davidson start vectors     ....     2
   Converg. threshold    (grad. norm)   ....   1.000e-05
   Grad. Scal. Fac. for Micro threshold ....   0.100
   Minimum threshold for Micro iter.    ....   1.000e-02
   NR start threshold (gradient norm)   ....   1.000e-04
   Initial trust radius                 ....   0.400
   Minimum AH scaling param. (alpha)    ....   1.000
   Maximum AH scaling param. (alpha)    .... 1000.000
   Quad. conv. algorithm                .... NR
   White noise on init. David. guess    .... on
   Maximum white noise                  ....   0.010
   Pseudo random numbers                .... off
   Inactive MOs                         .... canonical
   Orbital update algorithm             .... Taylor
   Preconditioner                       .... Diag
   Full preconditioner red. dimension   ....   250
 SOSCF                 CNVSOSCF           .... on
   Start iteration     SOSCFMaxIt         ....   150
   Startup grad/error  SOSCFStart         ....  0.003300
   Hessian update      SOSCFHessUp        .... L-BFGS
   Autom. constraints  SOSCFAutoConstrain .... off
 Level Shifting         CNVShift        .... on
   Level shift para.    LevelShift      ....    0.2500
   Turn off err/grad.   ShiftErr        ....    0.0010
 Zerner damping         CNVZerner       .... off
 Static damping         CNVDamp         .... on
   Fraction old density DampFac         ....    0.7000
   Max. Damping (<1)    DampMax         ....    0.9800
   Min. Damping (>=0)   DampMin         ....    0.0000
   Turn off err/grad.   DampErr         ....    0.1000

SCF Procedure:
 Maximum # iterations   MaxIter         ....   125
 SCF integral mode      SCFMode         .... Direct
   Integral package                     .... SHARK and LIBINT hybrid scheme
 Reset frequency        DirectResetFreq ....    20
 Integral Threshold     Thresh          ....  2.500e-11 Eh
 Primitive CutOff       TCut            ....  2.500e-12 Eh

Convergence Tolerance:
 Convergence Check Mode ConvCheckMode   .... Total+1el-Energy
 Convergence forced     ConvForced      .... 0
 Energy Change          TolE            ....  1.000e-08 Eh
 1-El. energy change                    ....  1.000e-05 Eh
 Orbital Gradient       TolG            ....  1.000e-05
 Orbital Rotation angle TolX            ....  1.000e-05
 DIIS Error             TolErr          ....  5.000e-07

------------------------------
INITIAL GUESS: MODEL POTENTIAL
------------------------------
Loading Hartree-Fock densities                     ... done
Calculating cut-offs                               ... done
Initializing the effective Hamiltonian             ... done
Setting up the integral package (SHARK)            ... done
Starting the Coulomb interaction                   ... done (   0.2 sec)
Making the grid                                    ... done (   0.1 sec)
Mapping shells                                     ... done
Starting the XC term evaluation                    ... done (   0.3 sec)
  promolecular density results
     # of electrons  =     97.994546096
     EX              =   -100.068985353
     EC              =     -3.642484615
     EX+EC           =   -103.711469969
Transforming the Hamiltonian                       ... done (   0.0 sec)
Diagonalizing the Hamiltonian                      ... done (   0.0 sec)
Back transforming the eigenvectors                 ... done (   0.0 sec)
Now organizing SCF variables                       ... done
                      ------------------
                      INITIAL GUESS DONE (   0.7 sec)
                      ------------------
             **** ENERGY FILE WAS UPDATED (HFE_347pcf2_anti.en.tmp) ****
Finished Guess after   0.8 sec
Maximum memory used throughout the entire GUESS-calculation: 40.2 MB

-------------------------------------------------------------------------------------------
                                      ORCA LEAN-SCF
                              memory conserving SCF solver
-------------------------------------------------------------------------------------------

----------------------------------------D-I-I-S--------------------------------------------
Iteration    Energy (Eh)           Delta-E    RMSDP     MaxDP     DIISErr   Damp  Time(sec)
-------------------------------------------------------------------------------------------
               ***  Starting incremental Fock matrix formation  ***
    1    -928.1121144220581982     0.00e+00  7.57e-04  3.91e-02  2.18e-01  0.700   8.2
    2    -928.2219173994013772    -1.10e-01  4.26e-04  2.20e-02  8.54e-02  0.700   4.2
                               ***Turning on AO-DIIS***
    3    -928.2587223835727173    -3.68e-02  1.30e-04  5.20e-03  2.45e-02  0.700   4.2
    4    -928.2833991086530432    -2.47e-02  2.25e-04  5.10e-03  1.31e-02  0.000   3.8
                              *** Initializing SOSCF ***
---------------------------------------S-O-S-C-F--------------------------------------
Iteration    Energy (Eh)           Delta-E    RMSDP     MaxDP     MaxGrad    Time(sec)
--------------------------------------------------------------------------------------
    5    -928.3400723448945655    -5.67e-02  6.19e-05  3.54e-03  2.36e-03     4.0
               *** Restarting incremental Fock matrix formation ***
    6    -928.3401319931543867    -5.96e-05  2.31e-05  8.21e-04  3.01e-04     8.2
    7    -928.3401300765125370     1.92e-06  1.03e-05  2.74e-04  3.72e-04     6.5
    8    -928.3401386106962718    -8.53e-06  2.41e-06  9.51e-05  3.74e-05     6.1
    9    -928.3401386002032041     1.05e-08  1.46e-06  4.91e-05  4.09e-05     5.6
   10    -928.3401387088591719    -1.09e-07  5.65e-07  1.97e-05  1.14e-05     4.9
   11    -928.3401387288005253    -1.99e-08  3.38e-07  1.37e-05  9.05e-06     4.6
   12    -928.3401387103621119     1.84e-08  4.97e-08  1.52e-06  8.36e-07     3.3
                  *** Gradient check signals convergence ***

               *****************************************************
               *                     SUCCESS                       *
               *           SCF CONVERGED AFTER  12 CYCLES          *
               *****************************************************

Recomputing exchange energy using gridx3       ... done (   16.524 sec)
Old exchange energy                            :    -20.083811864 Eh
New exchange energy                            :    -20.083917230 Eh
Exchange energy change after final integration :     -0.000105366 Eh
Total energy after final integration           :   -928.340244078 Eh
             **** ENERGY FILE WAS UPDATED (HFE_347pcf2_anti.en.tmp) ****

----------------
TOTAL SCF ENERGY
----------------

Total Energy       :       -928.34024407791492 Eh          -25261.42231 eV

Components:
Nuclear Repulsion  :        840.79647529670603 Eh           22879.23525 eV
Electronic Energy  :      -1769.13661400880278 Eh          -48140.65469 eV
One Electron Energy:      -2959.80378884381480 Eh          -80540.35569 eV
Two Electron Energy:       1190.66717483501202 Eh           32399.70100 eV

Virial components:
Potential Energy   :      -1851.97593091029876 Eh          -50394.82710 eV
Kinetic Energy     :        923.63568683238395 Eh           25133.40480 eV
Virial Ratio       :          2.00509352043517

DFT components:
N(Alpha)           :       49.000028323351 electrons
N(Beta)            :       49.000028323351 electrons
N(Total)           :       98.000056646702 electrons
E(X)               :      -80.010424672437 Eh       
E(C)               :       -4.262339709742 Eh       
E(XC)              :      -84.272764382179 Eh       

---------------
SCF CONVERGENCE
---------------

  Last Energy change         ...   -1.8438e-08  Tolerance :   1.0000e-08
  Last MAX-Density change    ...    1.5159e-06  Tolerance :   1.0000e-07
  Last RMS-Density change    ...    4.9664e-08  Tolerance :   5.0000e-09
  Last DIIS Error            ...    2.3593e-03  Tolerance :   5.0000e-07
  Last Orbital Gradient      ...    8.3618e-07  Tolerance :   1.0000e-05
  Last Orbital Rotation      ...    1.0334e-06  Tolerance :   1.0000e-05


----------------
ORBITAL ENERGIES
----------------

  NO   OCC          E(Eh)            E(eV) 
   0   2.0000     -24.737685      -673.1466 
   1   2.0000     -24.733925      -673.0443 
   2   2.0000     -24.731710      -672.9840 
   3   2.0000     -24.724353      -672.7838 
   4   2.0000     -24.723884      -672.7711 
   5   2.0000     -24.720104      -672.6682 
   6   2.0000     -24.717186      -672.5888 
   7   2.0000     -19.201891      -522.5100 
   8   2.0000     -10.442459      -284.1538 
   9   2.0000     -10.430853      -283.8379 
  10   2.0000     -10.373386      -282.2742 
  11   2.0000     -10.276366      -279.6341 
  12   2.0000      -1.324884       -36.0519 
  13   2.0000      -1.315797       -35.8046 
  14   2.0000      -1.283472       -34.9250 
  15   2.0000      -1.247253       -33.9395 
  16   2.0000      -1.240914       -33.7670 
  17   2.0000      -1.236250       -33.6401 
  18   2.0000      -1.226183       -33.3661 
  19   2.0000      -1.098306       -29.8864 
  20   2.0000      -0.832340       -22.6491 
  21   2.0000      -0.778306       -21.1788 
  22   2.0000      -0.693997       -18.8846 
  23   2.0000      -0.677711       -18.4415 
  24   2.0000      -0.624167       -16.9844 
  25   2.0000      -0.620144       -16.8750 
  26   2.0000      -0.615354       -16.7446 
  27   2.0000      -0.608486       -16.5577 
  28   2.0000      -0.593970       -16.1627 
  29   2.0000      -0.570626       -15.5275 
  30   2.0000      -0.569437       -15.4952 
  31   2.0000      -0.563627       -15.3371 
  32   2.0000      -0.513890       -13.9837 
  33   2.0000      -0.494022       -13.4430 
  34   2.0000      -0.484110       -13.1733 
  35   2.0000      -0.481490       -13.1020 
  36   2.0000      -0.477410       -12.9910 
  37   2.0000      -0.461902       -12.5690 
  38   2.0000      -0.455254       -12.3881 
  39   2.0000      -0.447222       -12.1695 
  40   2.0000      -0.445192       -12.1143 
  41   2.0000      -0.435146       -11.8409 
  42   2.0000      -0.433703       -11.8017 
  43   2.0000      -0.431344       -11.7375 
  44   2.0000      -0.425060       -11.5665 
  45   2.0000      -0.422968       -11.5095 
  46   2.0000      -0.389035       -10.5862 
  47   2.0000      -0.378191       -10.2911 
  48   2.0000      -0.343290        -9.3414 
  49   0.0000       0.032949         0.8966 
  50   0.0000       0.037989         1.0337 
  51   0.0000       0.047456         1.2914 
  52   0.0000       0.062563         1.7024 
  53   0.0000       0.085614         2.3297 
  54   0.0000       0.098553         2.6818 
  55   0.0000       0.140224         3.8157 
  56   0.0000       0.150853         4.1049 
  57   0.0000       0.160824         4.3763 
  58   0.0000       0.171700         4.6722 
  59   0.0000       0.184298         5.0150 
*Only the first 10 virtual orbitals were printed.

                    ********************************
                    * MULLIKEN POPULATION ANALYSIS *
                    ********************************

-----------------------
MULLIKEN ATOMIC CHARGES
-----------------------
   0 F :   -0.180445
   1 F :   -0.176685
   2 F :   -0.181440
   3 F :   -0.181223
   4 F :   -0.171246
   5 F :   -0.167545
   6 F :   -0.166920
   7 O :   -0.298798
   8 C :    0.464149
   9 C :   -0.067793
  10 C :    0.339754
  11 C :    0.530401
  12 H :    0.097922
  13 H :    0.099869
  14 H :    0.060000
Sum of atomic charges:    0.0000000

--------------------------------
MULLIKEN REDUCED ORBITAL CHARGES
--------------------------------
  0 F s       :     3.888180  s :     3.888180
      pz      :     1.818123  p :     5.275752
      px      :     1.901871
      py      :     1.555757
      dz2     :     0.001894  d :     0.015754
      dxz     :     0.000677
      dyz     :     0.005339
      dx2y2   :     0.004893
      dxy     :     0.002951
      f0      :     0.000093  f :     0.000760
      f+1     :     0.000003
      f-1     :     0.000119
      f+2     :     0.000222
      f-2     :     0.000062
      f+3     :     0.000105
      f-3     :     0.000156

  1 F s       :     3.889995  s :     3.889995
      pz      :     1.483671  p :     5.269893
      px      :     1.896173
      py      :     1.890049
      dz2     :     0.008472  d :     0.016026
      dxz     :     0.003584
      dyz     :     0.003366
      dx2y2   :     0.000317
      dxy     :     0.000287
      f0      :     0.000393  f :     0.000771
      f+1     :     0.000171
      f-1     :     0.000168
      f+2     :     0.000016
      f-2     :     0.000020
      f+3     :     0.000002
      f-3     :     0.000001

  2 F s       :     3.887361  s :     3.887361
      pz      :     1.813353  p :     5.277774
      px      :     1.898336
      py      :     1.566085
      dz2     :     0.002228  d :     0.015560
      dxz     :     0.000669
      dyz     :     0.005409
      dx2y2   :     0.004734
      dxy     :     0.002520
      f0      :     0.000091  f :     0.000745
      f+1     :     0.000001
      f-1     :     0.000128
      f+2     :     0.000221
      f-2     :     0.000059
      f+3     :     0.000092
      f-3     :     0.000153

  3 F s       :     3.888274  s :     3.888274
      pz      :     1.889034  p :     5.276684
      px      :     1.554039
      py      :     1.833610
      dz2     :     0.002264  d :     0.015521
      dxz     :     0.003153
      dyz     :     0.000811
      dx2y2   :     0.004535
      dxy     :     0.004759
      f0      :     0.000067  f :     0.000744
      f+1     :     0.000130
      f-1     :     0.000031
      f+2     :     0.000060
      f-2     :     0.000079
      f+3     :     0.000139
      f-3     :     0.000238

  4 F s       :     3.885482  s :     3.885482
      pz      :     1.487471  p :     5.269283
      px      :     1.894446
      py      :     1.887366
      dz2     :     0.008532  d :     0.015700
      dxz     :     0.003374
      dyz     :     0.003257
      dx2y2   :     0.000242
      dxy     :     0.000296
      f0      :     0.000414  f :     0.000781
      f+1     :     0.000159
      f-1     :     0.000170
      f+2     :     0.000015
      f-2     :     0.000022
      f+3     :     0.000001
      f-3     :     0.000001

  5 F s       :     3.885830  s :     3.885830
      pz      :     1.855514  p :     5.265406
      px      :     1.629548
      py      :     1.780344
      dz2     :     0.002014  d :     0.015534
      dxz     :     0.003090
      dyz     :     0.001616
      dx2y2   :     0.003440
      dxy     :     0.005375
      f0      :     0.000087  f :     0.000775
      f+1     :     0.000086
      f-1     :     0.000043
      f+2     :     0.000051
      f-2     :     0.000164
      f+3     :     0.000133
      f-3     :     0.000212

  6 F s       :     3.885515  s :     3.885515
      pz      :     1.813704  p :     5.264834
      px      :     1.898869
      py      :     1.552261
      dz2     :     0.001881  d :     0.015786
      dxz     :     0.000666
      dyz     :     0.005466
      dx2y2   :     0.004938
      dxy     :     0.002835
      f0      :     0.000097  f :     0.000785
      f+1     :     0.000003
      f-1     :     0.000120
      f+2     :     0.000234
      f-2     :     0.000061
      f+3     :     0.000104
      f-3     :     0.000167

  7 O s       :     3.742758  s :     3.742758
      pz      :     1.750997  p :     4.517294
      px      :     1.169954
      py      :     1.596343
      dz2     :     0.004985  d :     0.036528
      dxz     :     0.006350
      dyz     :     0.004435
      dx2y2   :     0.007483
      dxy     :     0.013274
      f0      :     0.000293  f :     0.002219
      f+1     :     0.000390
      f-1     :     0.000147
      f+2     :     0.000159
      f-2     :     0.000346
      f+3     :     0.000340
      f-3     :     0.000543

  8 C s       :     2.983107  s :     2.983107
      pz      :     0.658834  p :     2.192127
      px      :     0.815788
      py      :     0.717505
      dz2     :     0.067633  d :     0.325023
      dxz     :     0.073814
      dyz     :     0.069633
      dx2y2   :     0.044416
      dxy     :     0.069527
      f0      :     0.005518  f :     0.035594
      f+1     :     0.005666
      f-1     :     0.008702
      f+2     :     0.003313
      f-2     :     0.003895
      f+3     :     0.005138
      f-3     :     0.003363

  9 C s       :     3.214458  s :     3.214458
      pz      :     1.002420  p :     2.743236
      px      :     0.814082
      py      :     0.926734
      dz2     :     0.018816  d :     0.099788
      dxz     :     0.017116
      dyz     :     0.011721
      dx2y2   :     0.025854
      dxy     :     0.026281
      f0      :     0.001228  f :     0.010312
      f+1     :     0.001724
      f-1     :     0.001003
      f+2     :     0.000690
      f-2     :     0.001589
      f+3     :     0.001963
      f-3     :     0.002114

 10 C s       :     3.086349  s :     3.086349
      pz      :     0.930519  p :     2.339736
      px      :     0.726755
      py      :     0.682462
      dz2     :     0.032000  d :     0.207788
      dxz     :     0.031835
      dyz     :     0.035681
      dx2y2   :     0.050096
      dxy     :     0.058177
      f0      :     0.002306  f :     0.026372
      f+1     :     0.002045
      f-1     :     0.004362
      f+2     :     0.003252
      f-2     :     0.004230
      f+3     :     0.006512
      f-3     :     0.003665

 11 C s       :     2.920037  s :     2.920037
      pz      :     0.651434  p :     2.175317
      px      :     0.832823
      py      :     0.691060
      dz2     :     0.072420  d :     0.332960
      dxz     :     0.067312
      dyz     :     0.075710
      dx2y2   :     0.057969
      dxy     :     0.059549
      f0      :     0.005638  f :     0.041284
      f+1     :     0.006902
      f-1     :     0.009593
      f+2     :     0.003807
      f-2     :     0.004699
      f+3     :     0.006656
      f-3     :     0.003990

 12 H s       :     0.867708  s :     0.867708
      pz      :     0.009053  p :     0.031595
      px      :     0.009489
      py      :     0.013053
      dz2     :     0.000647  d :     0.002775
      dxz     :     0.000156
      dyz     :     0.000549
      dx2y2   :     0.000533
      dxy     :     0.000889

 13 H s       :     0.865559  s :     0.865559
      pz      :     0.011509  p :     0.031788
      px      :     0.009738
      py      :     0.010540
      dz2     :     0.000705  d :     0.002784
      dxz     :     0.000937
      dyz     :     0.000979
      dx2y2   :     0.000062
      dxy     :     0.000102

 14 H s       :     0.906866  s :     0.906866
      pz      :     0.015839  p :     0.030532
      px      :     0.007478
      py      :     0.007215
      dz2     :     0.000934  d :     0.002602
      dxz     :     0.000820
      dyz     :     0.000769
      dx2y2   :     0.000013
      dxy     :     0.000066



                     *******************************
                     * LOEWDIN POPULATION ANALYSIS *
                     *******************************

----------------------
LOEWDIN ATOMIC CHARGES
----------------------
   0 F :    0.244883
   1 F :    0.249407
   2 F :    0.237365
   3 F :    0.237288
   4 F :    0.241092
   5 F :    0.245553
   6 F :    0.245098
   7 O :    0.318344
   8 C :   -0.685554
   9 C :   -0.087154
  10 C :   -0.418472
  11 C :   -0.752171
  12 H :   -0.022528
  13 H :   -0.021450
  14 H :   -0.031698

-------------------------------
LOEWDIN REDUCED ORBITAL CHARGES
-------------------------------
  0 F s       :     3.585448  s :     3.585448
      pz      :     1.758259  p :     5.139250
      px      :     1.810130
      py      :     1.570861
      dz2     :     0.003619  d :     0.028995
      dxz     :     0.001194
      dyz     :     0.009350
      dx2y2   :     0.009072
      dxy     :     0.005760
      f0      :     0.000139  f :     0.001424
      f+1     :     0.000004
      f-1     :     0.000287
      f+2     :     0.000340
      f-2     :     0.000140
      f+3     :     0.000269
      f-3     :     0.000245

  1 F s       :     3.584700  s :     3.584700
      pz      :     1.520334  p :     5.135186
      px      :     1.806340
      py      :     1.808512
      dz2     :     0.015434  d :     0.029260
      dxz     :     0.006922
      dyz     :     0.006073
      dx2y2   :     0.000389
      dxy     :     0.000442
      f0      :     0.000604  f :     0.001447
      f+1     :     0.000390
      f-1     :     0.000372
      f+2     :     0.000032
      f-2     :     0.000045
      f+3     :     0.000002
      f-3     :     0.000003

  2 F s       :     3.587499  s :     3.587499
      pz      :     1.760651  p :     5.145216
      px      :     1.812043
      py      :     1.572521
      dz2     :     0.004810  d :     0.028531
      dxz     :     0.001053
      dyz     :     0.009922
      dx2y2   :     0.008170
      dxy     :     0.004575
      f0      :     0.000129  f :     0.001389
      f+1     :     0.000002
      f-1     :     0.000366
      f+2     :     0.000317
      f-2     :     0.000119
      f+3     :     0.000222
      f-3     :     0.000236

  3 F s       :     3.586848  s :     3.586848
      pz      :     1.815762  p :     5.145860
      px      :     1.559812
      py      :     1.770286
      dz2     :     0.004110  d :     0.028611
      dxz     :     0.006343
      dyz     :     0.001732
      dx2y2   :     0.008230
      dxy     :     0.008195
      f0      :     0.000130  f :     0.001393
      f+1     :     0.000248
      f-1     :     0.000062
      f+2     :     0.000106
      f-2     :     0.000177
      f+3     :     0.000328
      f-3     :     0.000342

  4 F s       :     3.588308  s :     3.588308
      pz      :     1.523292  p :     5.140789
      px      :     1.810177
      py      :     1.807321
      dz2     :     0.015440  d :     0.028375
      dxz     :     0.006452
      dyz     :     0.005790
      dx2y2   :     0.000228
      dxy     :     0.000465
      f0      :     0.000638  f :     0.001436
      f+1     :     0.000360
      f-1     :     0.000359
      f+2     :     0.000021
      f-2     :     0.000053
      f+3     :     0.000001
      f-3     :     0.000003

  5 F s       :     3.587612  s :     3.587612
      pz      :     1.785938  p :     5.137242
      px      :     1.617698
      py      :     1.733607
      dz2     :     0.003682  d :     0.028174
      dxz     :     0.005086
      dyz     :     0.002960
      dx2y2   :     0.006697
      dxy     :     0.009749
      f0      :     0.000131  f :     0.001420
      f+1     :     0.000185
      f-1     :     0.000096
      f+2     :     0.000090
      f-2     :     0.000279
      f+3     :     0.000313
      f-3     :     0.000326

  6 F s       :     3.587778  s :     3.587778
      pz      :     1.755064  p :     5.137238
      px      :     1.813451
      py      :     1.568723
      dz2     :     0.003490  d :     0.028446
      dxz     :     0.001089
      dyz     :     0.009509
      dx2y2   :     0.008871
      dxy     :     0.005486
      f0      :     0.000144  f :     0.001440
      f+1     :     0.000005
      f-1     :     0.000282
      f+2     :     0.000360
      f-2     :     0.000133
      f+3     :     0.000263
      f-3     :     0.000253

  7 O s       :     3.257462  s :     3.257462
      pz      :     1.622807  p :     4.324350
      px      :     1.171090
      py      :     1.530452
      dz2     :     0.013123  d :     0.094026
      dxz     :     0.017135
      dyz     :     0.007236
      dx2y2   :     0.025759
      dxy     :     0.030772
      f0      :     0.000410  f :     0.005819
      f+1     :     0.000905
      f-1     :     0.000401
      f+2     :     0.000417
      f-2     :     0.001033
      f+3     :     0.001395
      f-3     :     0.001257

  8 C s       :     2.760871  s :     2.760871
      pz      :     0.803716  p :     2.582063
      px      :     0.925430
      py      :     0.852917
      dz2     :     0.266807  d :     1.117905
      dxz     :     0.201155
      dyz     :     0.237049
      dx2y2   :     0.183482
      dxy     :     0.229413
      f0      :     0.038355  f :     0.224715
      f+1     :     0.033643
      f-1     :     0.046729
      f+2     :     0.028491
      f-2     :     0.023716
      f+3     :     0.029224
      f-3     :     0.024557

  9 C s       :     2.700499  s :     2.700499
      pz      :     1.001998  p :     2.789516
      px      :     0.845859
      py      :     0.941659
      dz2     :     0.118613  d :     0.523308
      dxz     :     0.081167
      dyz     :     0.072661
      dx2y2   :     0.121047
      dxy     :     0.129820
      f0      :     0.007667  f :     0.073831
      f+1     :     0.010982
      f-1     :     0.004720
      f+2     :     0.008980
      f-2     :     0.013969
      f+3     :     0.013948
      f-3     :     0.013565

 10 C s       :     2.748941  s :     2.748941
      pz      :     0.981551  p :     2.609411
      px      :     0.829785
      py      :     0.798075
      dz2     :     0.186549  d :     0.885987
      dxz     :     0.117448
      dyz     :     0.146513
      dx2y2   :     0.205206
      dxy     :     0.230271
      f0      :     0.013730  f :     0.174133
      f+1     :     0.013381
      f-1     :     0.022754
      f+2     :     0.029323
      f-2     :     0.027247
      f+3     :     0.036904
      f-3     :     0.030794

 11 C s       :     2.765035  s :     2.765035
      pz      :     0.794925  p :     2.548731
      px      :     0.928818
      py      :     0.824988
      dz2     :     0.280529  d :     1.180656
      dxz     :     0.200947
      dyz     :     0.246103
      dx2y2   :     0.215503
      dxy     :     0.237574
      f0      :     0.039663  f :     0.257749
      f+1     :     0.039509
      f-1     :     0.050800
      f+2     :     0.031172
      f-2     :     0.031786
      f+3     :     0.036753
      f-3     :     0.028066

 12 H s       :     0.840137  s :     0.840137
      pz      :     0.046644  p :     0.153149
      px      :     0.033362
      py      :     0.073142
      dz2     :     0.005621  d :     0.029243
      dxz     :     0.001284
      dyz     :     0.008236
      dx2y2   :     0.007080
      dxy     :     0.007021

 13 H s       :     0.838964  s :     0.838964
      pz      :     0.082031  p :     0.153243
      px      :     0.033752
      py      :     0.037460
      dz2     :     0.011261  d :     0.029243
      dxz     :     0.007690
      dyz     :     0.009540
      dx2y2   :     0.000248
      dxy     :     0.000506

 14 H s       :     0.861567  s :     0.861567
      pz      :     0.089059  p :     0.142049
      px      :     0.026664
      py      :     0.026326
      dz2     :     0.012665  d :     0.028082
      dxz     :     0.007371
      dyz     :     0.007397
      dx2y2   :     0.000198
      dxy     :     0.000451



                      *****************************
                      * MAYER POPULATION ANALYSIS *
                      *****************************

  NA   - Mulliken gross atomic population
  ZA   - Total nuclear charge
  QA   - Mulliken gross atomic charge
  VA   - Mayer's total valence
  BVA  - Mayer's bonded valence
  FA   - Mayer's free valence

  ATOM       NA         ZA         QA         VA         BVA        FA
  0 F      9.1804     9.0000    -0.1804     1.1946     1.1946     0.0000
  1 F      9.1767     9.0000    -0.1767     1.2064     1.2064    -0.0000
  2 F      9.1814     9.0000    -0.1814     1.1788     1.1788    -0.0000
  3 F      9.1812     9.0000    -0.1812     1.1797     1.1797     0.0000
  4 F      9.1712     9.0000    -0.1712     1.2086     1.2086    -0.0000
  5 F      9.1675     9.0000    -0.1675     1.2126     1.2126     0.0000
  6 F      9.1669     9.0000    -0.1669     1.2154     1.2154    -0.0000
  7 O      8.2988     8.0000    -0.2988     2.1715     2.1715    -0.0000
  8 C      5.5359     6.0000     0.4641     4.3529     4.3529    -0.0000
  9 C      6.0678     6.0000    -0.0678     3.9218     3.9218     0.0000
 10 C      5.6602     6.0000     0.3398     4.2158     4.2158    -0.0000
 11 C      5.4696     6.0000     0.5304     4.5529     4.5529     0.0000
 12 H      0.9021     1.0000     0.0979     1.0011     1.0011     0.0000
 13 H      0.9001     1.0000     0.0999     1.0010     1.0010     0.0000
 14 H      0.9400     1.0000     0.0600     0.9939     0.9939     0.0000

  Mayer bond orders larger than 0.100000
B(  0-F ,  8-C ) :   1.1174 B(  1-F ,  8-C ) :   1.1294 B(  2-F , 10-C ) :   1.1514 
B(  3-F , 10-C ) :   1.1295 B(  4-F , 11-C ) :   1.1769 B(  5-F , 11-C ) :   1.1649 
B(  6-F , 11-C ) :   1.1840 B(  7-O ,  8-C ) :   1.1343 B(  7-O ,  9-C ) :   0.9685 
B(  8-C , 10-C ) :   0.9134 B(  9-C , 11-C ) :   0.9749 B(  9-C , 12-H ) :   0.9412 
B(  9-C , 13-H ) :   0.9410 B( 10-C , 14-H ) :   0.9651 

-------
TIMINGS
-------

Total SCF time: 0 days 0 hours 1 min 23 sec 

Total time                  ....      83.359 sec
Sum of individual times     ....      80.266 sec  ( 96.3%)

SCF preparation             ....       0.115 sec  (  0.1%)
Fock matrix formation       ....      79.528 sec  ( 95.4%)
  Startup                   ....       0.012 sec  (  0.0% of F)
  Split-RI-J                ....       5.529 sec  (  7.0% of F)
  Chain of spheres X        ....      69.379 sec  ( 87.2% of F)
  XC integration            ....       7.236 sec  (  9.1% of F)
    XC Preparation          ....       0.000 sec  (  0.0% of XC)
    Basis function eval.    ....       2.600 sec  ( 35.9% of XC)
    Density eval.           ....       2.256 sec  ( 31.2% of XC)
    XC-Functional eval.     ....       0.241 sec  (  3.3% of XC)
    XC-Potential eval.      ....       1.850 sec  ( 25.6% of XC)
Diagonalization             ....       0.000 sec  (  0.0%)
Density matrix formation    ....       0.152 sec  (  0.2%)
Total Energy calculation    ....       0.007 sec  (  0.0%)
Population analysis         ....       0.028 sec  (  0.0%)
Orbital Transformation      ....       0.060 sec  (  0.1%)
Orbital Orthonormalization  ....       0.000 sec  (  0.0%)
DIIS solution               ....       0.192 sec  (  0.2%)
SOSCF solution              ....       0.184 sec  (  0.2%)
Finished LeanSCF after  83.4 sec

Maximum memory used throughout the entire LEANSCF-calculation: 58.9 MB

------------------------------------------------------------------------------
                         ORCA PROPERTY INTEGRAL CALCULATIONS
------------------------------------------------------------------------------

GBWName                                   ... HFE_347pcf2_anti.gbw
Number of atoms                           ...     15
Number of basis functions                 ...    474
Max core memory                           ...   4096 MB

Dipole integrals                          ... YES
Quadrupole integrals                      ...  NO
Linear momentum integrals                 ...  NO
Angular momentum integrals                ...  NO
Higher moments length integrals           ...  NO
Higher moments velocity integrals         ...  NO
Kinetic energy integrals                  ...  NO
GIAO right hand sides                     ...  NO
GIAO dipole derivative integrals          ...  NO
SOC integrals                             ...  NO
EPR diamagnetic integrals (GIAO)          ...  NO
EPR gauge integrals                       ...  NO
Field gradient integrals                  ...  NO (   0 nuclei)
Spin-dipole/Fermi contact integrals       ...  NO (   0 nuclei)
Contact density integrals                 ...  NO (   0 nuclei)
Nucleus-orbit integrals                   ...  NO (   0 nuclei)
Geometric perturbations                   ...  NO (  15 nuclei)

Choice of electric origin   ... Center of mass
Position of electric origin ... (  0.0003,  0.0097, -0.0142) 
Choice of magnetic origin   ... GIAO
Position of magnetic origin ... (  0.0000,  0.0000,  0.0000) 

Calculating integrals                     ... Electric Dipole (Length)     done (  0.0 sec)

Property integrals calculated in   0.0 sec

Maximum memory used throughout the entire PROPINT-calculation: 41.1 MB

-------------------------   --------------------
FINAL SINGLE POINT ENERGY      -928.340244077915
-------------------------   --------------------

------------------------------------------------------------------------------
                         ORCA SCF GRADIENT CALCULATION
------------------------------------------------------------------------------

Nuc. rep. gradient        (SHARK) ... done (  0.0 sec)
HCore & Overlap gradient  (SHARK) ... done (  0.4 sec)
Split-RIJ-J gradient      (SHARK) ... done (  2.6 sec)
COSX-gradient                     ... done ( 35.2 sec)
XC gradient                       ... done (  4.0 sec)

------------------
CARTESIAN GRADIENT
------------------

   1   F   :   -0.004921444    0.001166881    0.001977136
   2   F   :   -0.002467643    0.003436082   -0.002774141
   3   F   :    0.004251157    0.000587506   -0.000628339
   4   F   :    0.002463605    0.005264327   -0.001318052
   5   F   :    0.001784042    0.000059274    0.005205938
   6   F   :   -0.007392390   -0.001766747   -0.000375128
   7   F   :    0.001876464    0.005850099   -0.002637036
   8   O   :   -0.032602808    0.006410316    0.001488601
   9   C   :    0.044752838   -0.003907085    0.004615917
  10   C   :   -0.005078553    0.014021802    0.008117376
  11   C   :   -0.015811552   -0.019171290   -0.006902778
  12   C   :    0.002524624   -0.010508765   -0.006809780
  13   H   :    0.004353542   -0.002871784    0.001113379
  14   H   :    0.004026506   -0.000948053   -0.002609844
  15   H   :    0.002241613    0.002377435    0.001536751

Difference to translation invariance:
           :    0.0000000000    0.0000000000   -0.0000000001

Difference to rotation invariance:
           :   -0.0005096965    0.0000702756    0.0002689041

Norm of the Cartesian gradient     ...    0.0676019234
RMS gradient                       ...    0.0100774997
MAX gradient                       ...    0.0447528378

-------
TIMINGS
-------

Total SCF gradient time     ....       42.112 sec

Densities                   ....       0.003 sec  (  0.0%)
One electron gradient       ....       0.374 sec  (  0.9%)
RI-J Coulomb gradient       ....       2.564 sec  (  6.1%)
COSX gradient               ....      35.153 sec  ( 83.5%)
XC gradient                 ....       4.017 sec  (  9.5%)

Maximum memory used throughout the entire SCFGRAD-calculation: 72.4 MB
------------------------------------------------------------------------------
                         ORCA GEOMETRY RELAXATION STEP
------------------------------------------------------------------------------

Reading the OPT-File                    .... done
Getting information on internals        .... done
Copying old internal coords+grads       .... done
Making the new internal coordinates     .... (2022 redundants) done
Validating the new internal coordinates .... (2022 redundants) done
Calculating the B-matrix                .... done
Calculating the G,G- and P matrices     .... done
Transforming gradient to internals      .... done
Projecting the internal gradient        .... done
Number of atoms                         ....  15
Number of internal coordinates          ....  57
Current Energy                          ....  -928.340244078 Eh
Current gradient norm                   ....     0.067601923 Eh/bohr
Maximum allowed component of the step   ....  0.300
Current trust radius                    ....  0.300
Evaluating the initial hessian          ....  (Almloef) done
Projecting the Hessian                  .... done
Forming the augmented Hessian           .... done
Diagonalizing the augmented Hessian     .... done
Last element of RFO vector              ....  0.992489619
Lowest eigenvalues of augmented Hessian:
 -0.005401813  0.013130127  0.013287581  0.019618081  0.019752498
Length of the computed step             ....  0.123254572
The final length of the internal step   ....  0.123254572
Converting the step to Cartesian space:
 Initial RMS(Int)=    0.0163254669
Transforming coordinates:
 Iter   0:  RMS(Cart)=    0.0542263026 RMS(Int)=    0.8314859532
done
Storing new coordinates                 .... done

                                .--------------------.
          ----------------------|Geometry convergence|-------------------------
          Item                value                   Tolerance       Converged
          ---------------------------------------------------------------------
          RMS gradient        0.0063224529            0.0001000000      NO
          MAX gradient        0.0321147207            0.0003000000      NO
          RMS step            0.0163254669            0.0020000000      NO
          MAX step            0.0637759385            0.0040000000      NO
          -------------------------------------------------------------------------
          ........................................................
          Max(Bonds)      0.0337      Max(Angles)    1.74
          Max(Dihed)        1.70      Max(Improp)    0.00
          ---------------------------------------------------------------------

The optimization has not yet converged - more geometry cycles are needed


    ---------------------------------------------------------------------------
                         Redundant Internal Coordinates
                            (Angstroem and degrees)

        Definition                    Value    dE/dq     Step     New-Value
    ----------------------------------------------------------------------------
     1. B(C   8,F   1)                1.3540  0.001966 -0.0017    1.3523   
     2. B(C   8,O   7)                1.4217  0.032115 -0.0337    1.3879   
     3. B(C   8,F   0)                1.3549 -0.000366  0.0003    1.3552   
     4. B(C   9,O   7)                1.4207 -0.004422  0.0046    1.4254   
     5. B(C  10,F   3)                1.3556  0.000292 -0.0003    1.3553   
     6. B(C  10,C   8)                1.5052 -0.013994  0.0179    1.5231   
     7. B(C  10,F   2)                1.3560  0.000704 -0.0006    1.3553   
     8. B(C  11,F   6)                1.3498  0.006338 -0.0055    1.3442   
     9. B(C  11,F   5)                1.3498  0.006839 -0.0060    1.3439   
    10. B(C  11,C   9)                1.5067 -0.002806  0.0036    1.5103   
    11. B(C  11,F   4)                1.3510  0.004936 -0.0043    1.3467   
    12. B(H  12,C   9)                1.0953  0.003094 -0.0046    1.0907   
    13. B(H  13,C   9)                1.0952  0.003083 -0.0045    1.0907   
    14. B(H  14,C  10)                1.0933  0.001726 -0.0025    1.0908   
    15. A(C   8,O   7,C   9)          112.56 -0.010465    1.49    114.05   
    16. A(F   1,C   8,C  10)          110.06 -0.002768    0.34    110.40   
[...]
freq.     246.63  E(vib)   ...       0.35 
freq.     309.50  E(vib)   ...       0.29 
freq.     353.81  E(vib)   ...       0.26 
freq.     389.60  E(vib)   ...       0.23 
freq.     434.81  E(vib)   ...       0.21 
freq.     519.26  E(vib)   ...       0.16 
freq.     533.51  E(vib)   ...       0.15 
freq.     544.84  E(vib)   ...       0.15 
freq.     583.54  E(vib)   ...       0.13 
freq.     591.44  E(vib)   ...       0.13 
freq.     649.87  E(vib)   ...       0.11 
freq.     774.70  E(vib)   ...       0.07 
freq.     844.58  E(vib)   ...       0.06 
freq.     875.58  E(vib)   ...       0.05 
freq.     973.44  E(vib)   ...       0.04 
freq.    1042.68  E(vib)   ...       0.03 
freq.    1099.48  E(vib)   ...       0.02 
freq.    1132.54  E(vib)   ...       0.02 
freq.    1140.52  E(vib)   ...       0.02 
freq.    1170.72  E(vib)   ...       0.02 
freq.    1180.62  E(vib)   ...       0.02 
freq.    1201.64  E(vib)   ...       0.02 
freq.    1287.56  E(vib)   ...       0.01 
freq.    1294.88  E(vib)   ...       0.01 
freq.    1308.11  E(vib)   ...       0.01 
freq.    1373.38  E(vib)   ...       0.01 
freq.    1421.28  E(vib)   ...       0.01 
freq.    1452.18  E(vib)   ...       0.01 
freq.    1501.25  E(vib)   ...       0.01 
freq.    3067.78  E(vib)   ...       0.00 
freq.    3089.19  E(vib)   ...       0.00 
freq.    3123.98  E(vib)   ...       0.00 

------------
INNER ENERGY
------------

The inner energy is: U= E(el) + E(ZPE) + E(vib) + E(rot) + E(trans)
    E(el)   - is the total energy from the electronic structure calculation
              = E(kin-el) + E(nuc-el) + E(el-el) + E(nuc-nuc)
    E(ZPE)  - the the zero temperature vibrational energy from the frequency calculation
    E(vib)  - the the finite temperature correction to E(ZPE) due to population
              of excited vibrational states
    E(rot)  - is the rotational thermal energy
    E(trans)- is the translational thermal energy

Summary of contributions to the inner energy U:
Electronic energy                ...   -928.34524680 Eh
Zero point energy                ...      0.08263428 Eh      51.85 kcal/mol
Thermal vibrational correction   ...      0.00965905 Eh       6.06 kcal/mol
Thermal rotational correction    ...      0.00152006 Eh       0.95 kcal/mol
Thermal translational correction ...      0.00152006 Eh       0.95 kcal/mol
-----------------------------------------------------------------------
Total thermal energy                   -928.24991335 Eh


Summary of corrections to the electronic energy:
(perhaps to be used in another calculation)
Total thermal correction                  0.01269917 Eh       7.97 kcal/mol
Non-thermal (ZPE) correction              0.08263428 Eh      51.85 kcal/mol
-----------------------------------------------------------------------
Total correction                          0.09533346 Eh      59.82 kcal/mol


--------
ENTHALPY
--------

The enthalpy is H = U + kB*T
                kB is Boltzmann's constant
Total thermal energy              ...   -928.24991335 Eh 
Thermal Enthalpy correction       ...      0.00101341 Eh       0.64 kcal/mol
-----------------------------------------------------------------------
Total Enthalpy                    ...   -928.24889994 Eh


Note: Only C1 symmetry has been detected, increase convergence thresholds 
      if your molecule has a higher symmetry. Symmetry factor of 1.0 is   
      used for the rotational entropy correction. 
 

Note: Rotational entropy computed according to Herzberg 
Infrared and Raman Spectra, Chapter V,1, Van Nostrand Reinhold, 1945 
Point Group:  C1, Symmetry Number:   1  
Rotational constants in cm-1:     0.063050     0.014948     0.014095 

Vibrational entropy computed according to the QRRHO of S. Grimme
Chem.Eur.J. 2012 18 9955 using a reference frequency of 100.0 cm-1


-------
ENTROPY
-------

The entropy contributions are T*S = T*(S(el)+S(vib)+S(rot)+S(trans))
     S(el)   - electronic entropy
     S(vib)  - vibrational entropy
     S(rot)  - rotational entropy
     S(trans)- translational entropy
The entropies will be listed as multiplied by the temperature to get
units of energy

Electronic entropy                ...      0.00000000 Eh      0.00 kcal/mol
Vibrational entropy               ...      0.01773227 Eh     11.13 kcal/mol
Rotational entropy                ...      0.01600487 Eh     10.04 kcal/mol
Translational entropy             ...      0.02148743 Eh     13.48 kcal/mol
-----------------------------------------------------------------------
Final entropy term                ...      0.05522457 Eh     34.65 kcal/mol

In case the symmetry of your molecule has not been determined correctly
or in case you have a reason to use a different symmetry number we print 
out the resulting rotational entropy values for sn=1,12:

 non-linear molecules -----------------------------------
|  sn= 1 | S(rot)=       0.01600487 Eh     10.04 kcal/mol|
|  sn= 2 | S(rot)=       0.01530245 Eh      9.60 kcal/mol|
|  sn= 3 | S(rot)=       0.01489156 Eh      9.34 kcal/mol|
|  sn= 4 | S(rot)=       0.01460003 Eh      9.16 kcal/mol|
|  sn= 5 | S(rot)=       0.01437391 Eh      9.02 kcal/mol|
|  sn= 6 | S(rot)=       0.01418915 Eh      8.90 kcal/mol|
|  sn= 7 | S(rot)=       0.01403293 Eh      8.81 kcal/mol|
|  sn= 8 | S(rot)=       0.01389762 Eh      8.72 kcal/mol|
|  sn= 9 | S(rot)=       0.01377826 Eh      8.65 kcal/mol|
|  sn=10 | S(rot)=       0.01367149 Eh      8.58 kcal/mol|
|  sn=11 | S(rot)=       0.01357490 Eh      8.52 kcal/mol|
|  sn=12 | S(rot)=       0.01348673 Eh      8.46 kcal/mol|
 linear molecules ---------------------------------------
|  Dinfh | S(rot)=       0.01010671 Eh      6.34 kcal/mol|
|  Cinfv | S(rot)=       0.01080913 Eh      6.78 kcal/mol|
 --------------------------------------------------------


-------------------
GIBBS FREE ENERGY
-------------------

The Gibbs free energy is G = H - T*S

Total enthalpy                    ...   -928.24889994 Eh 
Total entropy correction          ...     -0.05522457 Eh    -34.65 kcal/mol
-----------------------------------------------------------------------
Final Gibbs free energy         ...   -928.30412451 Eh

For completeness - the Gibbs free energy minus the electronic energy
G-E(el)                           ...      0.04112229 Eh     25.80 kcal/mol


The first frequency considered to be a vibration is 6
The total number of vibrations considered is 39


--------------------------
THERMOCHEMISTRY AT 340.00K
--------------------------

Temperature         ...   340.00 K
Pressure            ...     1.00 atm
Total Mass          ...   200.05 AMU
Quasi RRHO          ...     True
Cut-Off Frequency   ...     1.00 cm^-1

Throughout the following assumptions are being made:
  (1) The electronic state is orbitally nondegenerate
  (2) There are no thermally accessible electronically excited states
  (3) Hindered rotations indicated by low frequency modes are not
      treated as such but are treated as vibrations and this may
      cause some error
  (4) All equations used are the standard statistical mechanics
      equations for an ideal gas
  (5) All vibrations are strictly harmonic

freq.      12.78  E(vib)   ...       0.66 
freq.      43.28  E(vib)   ...       0.62 
freq.      68.44  E(vib)   ...       0.58 
freq.      85.94  E(vib)   ...       0.56 
freq.     132.31  E(vib)   ...       0.50 
freq.     192.56  E(vib)   ...       0.44 
freq.     224.05  E(vib)   ...       0.41 
freq.     246.63  E(vib)   ...       0.38 
freq.     309.50  E(vib)   ...       0.33 
freq.     353.81  E(vib)   ...       0.29 
freq.     389.60  E(vib)   ...       0.27 
freq.     434.81  E(vib)   ...       0.23 
freq.     519.26  E(vib)   ...       0.19 
freq.     533.51  E(vib)   ...       0.18 
freq.     544.84  E(vib)   ...       0.17 
freq.     583.54  E(vib)   ...       0.15 
freq.     591.44  E(vib)   ...       0.15 
freq.     649.87  E(vib)   ...       0.13 
freq.     774.70  E(vib)   ...       0.09 
freq.     844.58  E(vib)   ...       0.07 
freq.     875.58  E(vib)   ...       0.06 
freq.     973.44  E(vib)   ...       0.05 
freq.    1042.68  E(vib)   ...       0.04 
freq.    1099.48  E(vib)   ...       0.03 
freq.    1132.54  E(vib)   ...       0.03 
freq.    1140.52  E(vib)   ...       0.03 
freq.    1170.72  E(vib)   ...       0.02 
freq.    1180.62  E(vib)   ...       0.02 
freq.    1201.64  E(vib)   ...       0.02 
freq.    1287.56  E(vib)   ...       0.02 
freq.    1294.88  E(vib)   ...       0.02 
freq.    1308.11  E(vib)   ...       0.01 
freq.    1373.38  E(vib)   ...       0.01 
freq.    1421.28  E(vib)   ...       0.01 
freq.    1452.18  E(vib)   ...       0.01 
freq.    1501.25  E(vib)   ...       0.01 
freq.    3067.78  E(vib)   ...       0.00 
freq.    3089.19  E(vib)   ...       0.00 
freq.    3123.98  E(vib)   ...       0.00 

------------
INNER ENERGY
------------

The inner energy is: U= E(el) + E(ZPE) + E(vib) + E(rot) + E(trans)
    E(el)   - is the total energy from the electronic structure calculation
              = E(kin-el) + E(nuc-el) + E(el-el) + E(nuc-nuc)
    E(ZPE)  - the the zero temperature vibrational energy from the frequency calculation
    E(vib)  - the the finite temperature correction to E(ZPE) due to population
              of excited vibrational states
    E(rot)  - is the rotational thermal energy
    E(trans)- is the translational thermal energy

Summary of contributions to the inner energy U:
Electronic energy                ...   -928.34524680 Eh
Zero point energy                ...      0.08263428 Eh      51.85 kcal/mol
Thermal vibrational correction   ...      0.01079101 Eh       6.77 kcal/mol
Thermal rotational correction    ...      0.00161507 Eh       1.01 kcal/mol
Thermal translational correction ...      0.00161507 Eh       1.01 kcal/mol
-----------------------------------------------------------------------
Total thermal energy                   -928.24859137 Eh


Summary of corrections to the electronic energy:
(perhaps to be used in another calculation)
Total thermal correction                  0.01402115 Eh       8.80 kcal/mol
Non-thermal (ZPE) correction              0.08263428 Eh      51.85 kcal/mol
-----------------------------------------------------------------------
Total correction                          0.09665543 Eh      60.65 kcal/mol


--------
ENTHALPY
--------

The enthalpy is H = U + kB*T
                kB is Boltzmann's constant
Total thermal energy              ...   -928.24859137 Eh 
Thermal Enthalpy correction       ...      0.00107674 Eh       0.68 kcal/mol
-----------------------------------------------------------------------
Total Enthalpy                    ...   -928.24751463 Eh


Note: Only C1 symmetry has been detected, increase convergence thresholds 
      if your molecule has a higher symmetry. Symmetry factor of 1.0 is   
      used for the rotational entropy correction. 
 

Note: Rotational entropy computed according to Herzberg 
Infrared and Raman Spectra, Chapter V,1, Van Nostrand Reinhold, 1945 
Point Group:  C1, Symmetry Number:   1  
Rotational constants in cm-1:     0.063050     0.014948     0.014095 

Vibrational entropy computed according to the QRRHO of S. Grimme
Chem.Eur.J. 2012 18 9955 using a reference frequency of 100.0 cm-1


-------
ENTROPY
-------

The entropy contributions are T*S = T*(S(el)+S(vib)+S(rot)+S(trans))
     S(el)   - electronic entropy
     S(vib)  - vibrational entropy
     S(rot)  - rotational entropy
     S(trans)- translational entropy
The entropies will be listed as multiplied by the temperature to get
units of energy

Electronic entropy                ...      0.00000000 Eh      0.00 kcal/mol
Vibrational entropy               ...      0.01988404 Eh     12.48 kcal/mol
Rotational entropy                ...      0.01710309 Eh     10.73 kcal/mol
Translational entropy             ...      0.02299358 Eh     14.43 kcal/mol
-----------------------------------------------------------------------
Final entropy term                ...      0.05998071 Eh     37.64 kcal/mol

In case the symmetry of your molecule has not been determined correctly
or in case you have a reason to use a different symmetry number we print 
out the resulting rotational entropy values for sn=1,12:

 non-linear molecules -----------------------------------
|  sn= 1 | S(rot)=       0.01710309 Eh     10.73 kcal/mol|
|  sn= 2 | S(rot)=       0.01635677 Eh     10.26 kcal/mol|
|  sn= 3 | S(rot)=       0.01592020 Eh      9.99 kcal/mol|
|  sn= 4 | S(rot)=       0.01561045 Eh      9.80 kcal/mol|
|  sn= 5 | S(rot)=       0.01537019 Eh      9.64 kcal/mol|
|  sn= 6 | S(rot)=       0.01517388 Eh      9.52 kcal/mol|
|  sn= 7 | S(rot)=       0.01500790 Eh      9.42 kcal/mol|
|  sn= 8 | S(rot)=       0.01486413 Eh      9.33 kcal/mol|
|  sn= 9 | S(rot)=       0.01473731 Eh      9.25 kcal/mol|
|  sn=10 | S(rot)=       0.01462387 Eh      9.18 kcal/mol|
|  sn=11 | S(rot)=       0.01452125 Eh      9.11 kcal/mol|
|  sn=12 | S(rot)=       0.01442756 Eh      9.05 kcal/mol|
 linear molecules ---------------------------------------
|  Dinfh | S(rot)=       0.01080366 Eh      6.78 kcal/mol|
|  Cinfv | S(rot)=       0.01154998 Eh      7.25 kcal/mol|
 --------------------------------------------------------


-------------------
GIBBS FREE ENERGY
-------------------

The Gibbs free energy is G = H - T*S

Total enthalpy                    ...   -928.24751463 Eh 
Total entropy correction          ...     -0.05998071 Eh    -37.64 kcal/mol
-----------------------------------------------------------------------
Final Gibbs free energy         ...   -928.30749534 Eh

For completeness - the Gibbs free energy minus the electronic energy
G-E(el)                           ...      0.03775146 Eh     23.69 kcal/mol


Maximum memory used throughout the entire PROP-calculation: 138.8 MB

--------------------------------
SUGGESTED CITATIONS FOR THIS RUN
--------------------------------

Below you find a list of papers that are relevant to this ORCA run
We neither can nor want to force you to cite these papers, but we appreciate if you do
You receive ORCA, which is the product of decades of hard work by many enthusiastic individuals, for free
The only thing we kindly ask in return is that you cite our papers,
We deeply appreciate it, if you show your appreciation for ORCA by not just citing the generic ORCA reference.

Please note that relegating all ORCA citations to the supporting information does *not* help us.
SI sections are not indexed - citations you put there will not count into any citation statistics
But we need these citations in order to attract the funding resources that allow us to do what we are doing

Therefore, if you are a happy ORCA user, please consider citing a few of the papers listed below in the main body of your paper

In addition to the list printed below, the program has created the file HFE_347pcf2_anti.bibtex that contains the list in bibtex format
You can import this file easily into all common literature databanks and citation aid programs

It goes without saying that in many instances, there are alternative algorithms to achieve similar
results as the ones you have gotten from ORCA. It is, of course, also the case that in some instances
ORCA just re-implements algorithms worked out by others. We are fully aware of that and we are also
fully appreciative of our colleagues work. Hence this citation list should not be read as indicating
that the listed papers, which are focused on our own work, are the only ones worth citing. It simply
meant to make it easier for users to cite ORCA specific papers. It is not a substitute for doing your
own literature research and citing the relevant literature in a scientifically appropriate manner.

List of essential papers. We consider these as the minimum necessary citations

  1. Neese, F.
     Software update: the ORCA program system, version 6.0
     WIRES Comput. Molec. Sci. 2025 15(1), e70019
     doi.org/10.1002/wcms.70019

List of papers to cite with high priority. The work reported in these papers was absolutely
necessary for this run to complete.
Our perspective: the developers of density functionals and basis sets usually get cited in chemistry papers
Good! But without the algorithms to do something with them, the functionals or basis sets would not do anything.
Hence, in our opinion, the algorithm design and method developments papers are equally worthy of getting cited

  1. Neese, F.
     An improvement of the resolution of the identity approximation for the formation of the Coulomb matrix
     J. Comp. Chem. 2003 24(14), 1740-1747
     doi.org/10.1002/jcc.10318
  2. Neese, F.; Wennmohs, F.; Hansen, A.; Becker, U.
     Efficient, approximate and parallel Hartree-Fock and hybrid DFT calculations. A 'chain-of-spheres' algorithm for the Hartree-Fock exchange
     Chem. Phys. 2009 356(1-3), 98-109
     doi.org/10.1016/j.chemphys.2008.10.036
  3. Bykov, D.; Petrenko, T.; Izsak, R.; Kossmann, S.; Becker, U.; Valeev, E.; Neese, F.
     Efficient implementation of the analytic second derivatives of Hartree-Fock and hybrid DFT energies: a detailed analysis of different approximations
     Molec. Phys. 2015 113 , 1961-1977
     doi.org/10.1080/00268976.2015.1025114
  4. Helmich-Paris, B.; de Souza, B.; Neese, F.; Izsák, R.
     An improved chain of spheres for exchange algorithm
     J. Chem. Phys. 2021 155(10), 104109
     doi.org/10.1063/5.0058766
  5. Neese, F.
     The SHARK Integral Generation and Digestion System
     J. Comp. Chem. 2022 44(3), 381
     doi.org/10.1002/jcc.26942

List of suggested additional citations. These are papers that are important in the 'surrounding' of 
of this run, or papers that preceded the highly important papers. If you like your results we are grateful for a citation.

  1. Izsak, R.; Neese, F.
     An overlap fitted chain of spheres exchange method
     J. Chem. Phys. 2011 135 , 144105
     doi.org/10.1063/1.3646921
  2. Izsak, R.; Hansen, A.; Neese, F.
     The resolution of identity and chain of spheres approximations for the LPNO-CCSD singles Fock term
     Molec. Phys. 2012 110 , 2413-2417
     doi.org/10.1080/00268976.2012.687466
  3. Neese, F.
     The ORCA program system
     WIRES Comput. Molec. Sci. 2012 2(1), 73-78
     doi.org/10.1002/wcms.81
  4. Izsak, R.; Neese, F.; Klopper, W.
     Robust fitting techniques in the chain of spheres approximation to the Fock exchange: The role of the complementary space
     J. Chem. Phys. 2013 139 , 
     doi.org/10.1063/1.4819264
  5. Neese, F.
     Software update: the ORCA program system, version 4.0
     WIRES Comput. Molec. Sci. 2018 8(1), 1-6
     doi.org/10.1002/wcms.1327
  6. Neese, F.; Wennmohs, F.; Becker, U.; Riplinger, C.
     The ORCA quantum chemistry program package
     J. Chem. Phys. 2020 152(22), 224108
     doi.org/10.1063/5.0004608
  7. Neese, F.
     Software update: The ORCA program system—Version 5.0
     WIRES Comput. Molec. Sci. 2022 12(1), e1606
     doi.org/10.1002/wcms.1606

List of optional additional citations

  1. Neese, F.
     Approximate second-order SCF convergence for spin unrestricted wavefunctions
     Chem. Phys. Lett. 2000 325(1-3), 93-98
     doi.org/10.1016/s0009-2614(00)00662-x

Timings for individual modules:

Sum of individual times          ...     2425.919 sec (=  40.432 min)
Startup calculation              ...       42.758 sec (=   0.713 min)   1.8 %
SCF iterations                   ...      822.723 sec (=  13.712 min)  33.9 %
Property integrals               ...      265.935 sec (=   4.432 min)  11.0 %
SCF Response                     ...      220.596 sec (=   3.677 min)   9.1 %
Property calculations            ...      570.330 sec (=   9.505 min)  23.5 %
SCF Gradient evaluation          ...      503.514 sec (=   8.392 min)  20.8 %
Geometry relaxation              ...        0.063 sec (=   0.001 min)   0.0 %
                             ****ORCA TERMINATED NORMALLY****
TOTAL RUN TIME: 0 days 0 hours 40 minutes 27 seconds 632 msec
