
                                 *****************
                                 * O   R   C   A *
                                 *****************

                                            #,                                       
                                            ###                                      
                                            ####                                     
                                            #####                                    
                                            ######                                   
                                           ########,                                 
                                     ,,################,,,,,                         
                               ,,#################################,,                 
                          ,,##########################################,,             
                       ,#########################################, ''#####,          
                    ,#############################################,,   '####,        
                  ,##################################################,,,,####,       
                ,###########''''           ''''###############################       
              ,#####''   ,,,,##########,,,,          '''####'''          '####       
            ,##' ,,,,###########################,,,                        '##       
           ' ,,###''''                  '''############,,,                           
         ,,##''                                '''############,,,,        ,,,,,,###''
      ,#''                                            '''#######################'''  
     '                                                          ''''####''''         
             ,#######,   #######,   ,#######,      ##                                
            ,#'     '#,  ##    ##  ,#'     '#,    #''#        ,####,    ,#,          
            ##       ##  ##   ,#'  ##            #'  '#       #'       ,# #          
            ##       ##  #######   ##           ,######,      #####,      #          
            '#,     ,#'  ##    ##  '#,     ,#' ,#      #,     #,   #      #          
             '#######'   ##     ##  '#######'  #'      '#     '####' #    #          



                #########################################################
                #                        -***-                          #
                #          Department of theory and spectroscopy        #
                #                                                       #
                #                      Frank Neese                      #
                #                                                       #
                #     Directorship, Architecture, Infrastructure        #
                #                    SHARK, DRIVERS                     #
                #        Core code/Algorithms in most modules           #
                #                                                       #
                #        Max Planck Institute fuer Kohlenforschung      #
                #                Kaiser Wilhelm Platz 1                 #
                #                 D-45470 Muelheim/Ruhr                 #
                #                      Germany                          #
                #                                                       #
                #                  All rights reserved                  #
                #                        -***-                          #
                #########################################################


                         Program Version 6.1.0  -  RELEASE   -
                                (GIT: $679e74b$)
                          ($2025-06-10 18:02:51 +0200$)


 With contributions from (in alphabetic order):
[Max-Planck-Institut fuer Kohlenforschung]                               
  Daniel Aravena         : Magnetic Suceptibility                        
  Michael Atanasov       : Ab Initio Ligand Field Theory (pilot matlab implementation)
  Alexander A. Auer      : GIAO ZORA, VPT2 properties, NMR spectrum      
  Ute Becker             : All parallelization in ORCA, NUMFREQ, NUMCALC 
  Giovanni Bistoni       : ED, misc. LED, open-shell LED, HFLD           
  Dmytro Bykov           : pre 5.0 version of the SCF Hessian            
  Marcos Casanova-Páez   : Triplet and SCS-CIS(D). UHF-(DLPNO)-IP/EA/STEOM-CCSD. UHF-CVS-IP/STEOM-CCSD   
  Vijay G. Chilkuri      : MRCI spin determinant printing, contributions to CSF-ICE 
  Pauline Colinet        : FMM embedding                                 
  Dipayan Datta          : RHF DLPNO-CCSD density                        
  Achintya Kumar Dutta   : EOM-CC, STEOM-CC                              
  Nicolas Foglia         : Exact transition moments, OPA infrastructure, MCD improvements    
  Dmitry Ganyushin       : Spin-Orbit,Spin-Spin,Magnetic field MRCI      
  Miquel Garcia-Rates    : C-PCM and meta-GGA Hessian, CCSD/C-PCM, Gaussian charge scheme 
  Tiago L. C. Gouveia    : GS-ROHF, GS-ROCIS                             
  Yang Guo               : DLPNO-NEVPT2, F12-NEVPT2, CIM, IAO-localization        
  Andreas Hansen         : Spin unrestricted coupled pair/coupled cluster methods 
  Ingolf Harden          : AUTO-CI MPn and infrastructure                
  Benjamin Helmich-Paris : MC-RPA, TRAH-(SCF,CASSCF), AVAS, COSX integrals, SCF dyn. polar., MC-PDFT, srDFT 
  Lee Huntington         : MR-EOM, pCC                                   
  Robert Izsak           : Overlap fitted RIJCOSX, COSX-SCS-MP3, EOM     
  Riya Kayal             : Wick's Theorem for AUTO-CI, AUTO-CI UHF-CCSDT 
  Emily Kempfer          : AUTO-CI RHF CISDT and CCSDT, approximate NEVPT4
  Christian Kollmar      : KDIIS, OOCD, Brueckner-CCSD(T), CCSD density, CASPT2, CASPT2-K, improved NEVPT2 
  Axel Koslowski         : Symmetry handling                             
  Simone Kossmann        : meta-GGA functionals, TD-DFT gradient, OOMP2, (MP2 Hessian; deprecated post 5.0) 
  Lucas Lang             : DCDCAS, Hyperfine gauge corrections, ICE-SOC+SSC
  Marvin Lechner         : AUTO-CI (C++ implementation), FIC-MRCC        
  Spencer Leger          : CASSCF response                               
  Dagmar Lenk            : GEPOL surface, SMD, ORCA-2-JSON               
  Dimitrios Liakos       : Extrapolation schemes; Compound Job, Property file
  Dimitrios Manganas     : Further ROCIS development; embedding schemes. LFT, Crystal Embedding 
  Dimitrios Pantazis     : SARC Basis sets                               
  Anastasios Papadopoulos: AUTO-CI, single reference methods and gradients 
  Taras Petrenko         : pre 6.0 DFT Hessian and TD-DFT gradient,  ECA, NRVS 
  Petra Pikulova         : Analytic Raman intensities                    
  Peter Pinski           : DLPNO-MP2, DLPNO-MP2 Gradient                 
  Shashank Vittal Rao    : ES-AILFT, MagRelax                            
  Christoph Reimann      : Effective Core Potentials                     
  Marius Retegan         : Local ZFS, SOC                                
  Christoph Riplinger    : Optimizer, TS searches, QM/MM, DLPNO-CCSD(T), (RO)-DLPNO pert. Triples 
  Michael Roemelt        : Original ROCIS implementation, recursive CI coupling coefficients
  Masaaki Saitow         : Open-shell DLPNO-CCSD energy and density      
  Barbara Sandhoefer     : DKH picture change effects                    
  Yorick L. A. Schmerwitz: GMF and freeze-and-release deltaSCF, NEB S-IDPP initial path                    
  Kantharuban Sivalingam : CASSCF convergence/infrastructure, NEVPT2, NEVPT3, NEVPT4(SD), FIC-MRCI and CEPA variants
  Bernardo de Souza      : ESD, SOC TD-DFT                               
  Georgi L. Stoychev     : AutoAux, RI-MP2 NMR, DLPNO-MP2 response, X2C  
  Van Anh Tran           : RI-MP2 g-tensors                              
  Willem Van den Heuvel  : Paramagnetic NMR                              
  Zikuan Wang            : NOTCH, Electric field optimization            
  Frank Wennmohs         : Technical directorship and infrastructure     
  Hang Xu                : AUTO-CI-Response properties                   
                                                                         
[FACCTs GmbH]                                                            
  Markus Bursch, Nicolas Foglia, Miquel Garcia-Rates, Ingolf Harden, Hagen Neugebauer, Anastasios Papadopoulos, 
  Christoph Riplinger, Bernardo de Souza, Georgi L. Stoychev                                                    
                                                                 
  APM, various basis sets, CI-OPT, improved COSX, DLPNO-Multilevel,           
  DOCKER, DRACO, updates on ESD, Fragmentator, GOAT, IRC, LR-CPCM, L-BFGS, MBIS, meta-GGA TD-DFT gradient, ML-optimized integration grids, 
  MM, NACMEs, nearIR, NEB, NEB-TS, NL-DFT gradient (VV10), 2- and 3-layer-ONIOM, interface openCOSMO-RS, QMMM,   
  Crystal-QMMM, RESP, rigid body optimization, SF, symmetry and pop. for TD-DFT, various functionals, SOLVATOR                                   
                                                                         
[Other institutions]                                                     
  V. Asgeirsson          : NEB                                           
  Christoph Bannwarth    : sTDA-DFT, sTD-DFT, PBEh-3c, B97-3c, D3        
  Giovanni Bistoni       : ETS/NOCV, ADLD/ADEX, COVALED                  
  Martin Brehm           : Molecular dynamics                            
  Ronald Cardenas        : ETS/NOCV                                      
  Martina Colucci        : COVALED                                       
  Sebastian Ehlert       : rSCAN, r2SCAN, r2SCAN-3c, D4, dhf basis sets  
  Marvin Friede          : D4 for Fr, Ra, Ac-Lr                          
  Lars Goerigk           : TD-DFT with DH, B97 family of functionals     
  Stefan Grimme          : VdW corrections, initial TS optimization, DFT functionals, gCP, sTDA/sTD-DF 
  Waldemar Hujo          : DFT-NL                                        
  H. Jonsson             : NEB                                           
  Holger Kruse           : gCP                                           
  Marcel Mueller         : wB97X-3c, vDZP basis set                      
  Hagen Neugebauer       : wr2SCAN, Native XTB                           
  Gianluca Regni         : ADLD/ADEX                                     
  Tobias Risthaus        : pre 6.0 range-separated hybrid DFT and stability analysis
  Lukas Wittmann         : regularized MP2, r2SCAN double-hybrids, wr2SCAN        
                                                                         
We gratefully acknowledge several colleagues who have allowed us to      
interface, adapt or use parts of their codes:                            
  Ed Valeev, F. Pavosevic, A. Kumar             : LibInt (2-el integral package), F12 methods 
  Garnet Chan, S. Sharma, J. Yang, R. Olivares  : DMRG                   
  Ulf Ekstrom                                   : XCFun DFT Library      
  Mihaly Kallay                                 : mrcc  (arbitrary order and MRCC methods)
  Frank Weinhold                                : gennbo (NPA and NBO analysis)           
  Simon Mueller                                 : openCOSMO-RS                            
  Christopher J. Cramer and Donald G. Truhlar   : smd solvation model                     
  S Lehtola, MJT Oliveira, MAL Marques          : LibXC Library                           
  Liviu Ungur et al                             : ANISO software                          


 Your calculation uses the libint2 library for the computation of 2-el integrals
 For citations please refer to: http://libint.valeyev.net

 Your ORCA version has been built with support for libXC version: 7.0.0
 For citations please refer to: https://libxc.gitlab.io

 This ORCA versions uses:
   CBLAS   interface :  Fast vector & matrix operations
   LAPACKE interface :  Fast linear algebra routines
   SCALAPACK package :  Parallel linear algebra routines
   Shared memory     :  Shared parallel matrices
   BLAS/LAPACK       :  OpenBLAS 0.3.29  USE64BITINT DYNAMIC_ARCH NO_AFFINITY Haswell SINGLE_THREADED
        Core in use  :  Haswell
   Copyright (c) 2011-2014, The OpenBLAS Project


  ***********************************
  * Starting time: Wed Dec 31 19:17:10 2025
  * Host name:     BOOK-611GI2U5BQ
  * Process ID:    205069
  * Working dir.:  /home/a_limbo/IR_lab/TFTFE/B3LYP_cc_pVTZ
  ***********************************

Warning: RI is on but no J-basis has been assigned. Assigning Def2/J (nothing to worry about!)
================================================================================

----- Orbital basis set information -----
Your calculation utilizes the basis: cc-pVTZ 
       H, B-Ne : Obtained from the ccRepo (grant-hill.group.shef.ac.uk/ccrepo) Feb. 2017
                 T. H. Dunning, Jr., J. Chem. Phys. 90, 1007 (1989)
            He : Obtained from the ccRepo (grant-hill.group.shef.ac.uk/ccrepo) Feb. 2017
                 D. E. Woon, T. H. Dunning, Jr., J. Chem. Phys. 100, 2975 (1994)
  Li-Be, Na-Mg : Obtained from the ccRepo (grant-hill.group.shef.ac.uk/ccrepo) Feb. 2017
                 B. P. Prascher, D. E. Woon, K. A. Peterson, T. H. Dunning, Jr., A. K. Wilson, Theor. Chem. Acc. 128, 69 (2011)
         Al-Ar : Obtained from the ccRepo (grant-hill.group.shef.ac.uk/ccrepo) Feb. 2017
                 D. E. Woon, T. H. Dunning, Jr., J. Chem. Phys. 98, 1358 (1993)
            Ca : Obtained from the Peterson Research Group Website (tyr0.chem.wsu.edu/~kipeters) Feb. 2017
                 J. Koput, K. A. Peterson, J. Phys. Chem. 106, 9595 (2002)
         Sc-Zn : Obtained from the ccRepo (grant-hill.group.shef.ac.uk/ccrepo) Feb. 2017
                 N. B. Balabanov, K. A. Peterson, J. Chem. Phys. 123, 064107 (2005)
                 N. B. Balabanov, K. A. Peterson, J. Chem. Phys. 125, 074110 (2006)
         Ga-Kr : Obtained from the ccRepo (grant-hill.group.shef.ac.uk/ccrepo) Feb. 2017
                 A. K. Wilson, D. E. Woon, K. A. Peterson, T. H. Dunning, Jr., J. Chem. Phys. 110, 7667 (1999)
             Y : Obtained from the ccRepo (grant-hill.group.shef.ac.uk/ccrepo) Feb. 2017
                 K. A. Peterson, D. Figgen, M. Dolg, H. Stoll, J. Chem. Phys. 126, 124101 (2007)
        Ag, Au : Obtained from the Peterson Research Group Website (tyr0.chem.wsu.edu/~kipeters) Feb. 2017
                 K. A. Peterson, C. Puzzarini, Theor. Chem. Acc. 114, 283 (2005)

----- AuxJ basis set information -----
Your calculation utilizes the auxiliary basis: def2/J
   H-Rn: F. Weigend, Phys. Chem. Chem. Phys. 8, 1057 (2006).
   Fr-Lr: K. Eichkorn, F. Weigend, O. Treutler, R. Ahlrichs; Theor. Chem. Acc. 97, 119 (1997).

================================================================================
                                        WARNINGS
                       Please study these warnings very carefully!
================================================================================


WARNING: Geometry Optimization
  ===> : Switching off AutoStart
         For restart on a previous wavefunction, please use MOREAD

================================================================================
                                       INPUT FILE
================================================================================
NAME = TFTFE_C3.inp
|  1> # avogadro generated ORCA input file 
|  2> # Basic Mode
|  3> # 
|  4> ! B3LYP cc-pVTZ OPT FREQ
|  5> 
|  6> * xyz 0 1
|  7>    C       -2.87203        1.21046        0.23369
|  8>    F       -3.85940        1.57630       -0.61758
|  9>    F       -3.21375        1.65190        1.46288
| 10>    F       -2.84330       -0.13980        0.26343
| 11>    C       -1.53723        1.78451       -0.22724
| 12>    O       -0.50013        1.57705        0.73764
| 13>    H       -1.65571        2.86254       -0.38397
| 14>    H       -1.26132        1.31673       -1.17906
| 15>    C        0.79018        1.92912        0.24706
| 16>    F        0.65733        2.79426       -0.79528
| 17>    F        1.40692        2.63301        1.23236
| 18>    C        1.64804        0.72839       -0.16464
| 19>    H        2.63253        1.04651       -0.51770
| 20>    F        1.81940       -0.13886        0.86793
| 21>    F        1.04163        0.02288       -1.15950
| 22> *
| 23> 
| 24> 
| 25>                          ****END OF INPUT****
================================================================================

                       *****************************
                       * Geometry Optimization Run *
                       *****************************

Geometry optimization settings:
Update method            Update   .... BFGS
Choice of coordinates    CoordSys .... (2022) Redundant Internals
Initial Hessian          InHess   .... Almloef's Model
Max. no of cycles        MaxIter  .... 50

Convergence Tolerances:
Energy Change            TolE     ....  5.0000e-06 Eh
Max. Gradient            TolMAXG  ....  3.0000e-04 Eh/bohr
RMS Gradient             TolRMSG  ....  1.0000e-04 Eh/bohr
Max. Displacement        TolMAXD  ....  4.0000e-03 bohr
RMS Displacement         TolRMSD  ....  2.0000e-03 bohr
Strict Convergence                .... False

------------------------------------------------------------------------------
                        ORCA OPTIMIZATION COORDINATE SETUP
------------------------------------------------------------------------------

The optimization will be done in redundant internal coordinates (2022)
Making redundant internal coordinates   ...  (2022 redundants) done
Evaluating the initial hessian          ...  (Almloef) done
Evaluating the coordinates              ...  done
Calculating the B-matrix                .... done
Calculating the G-matrix                .... done
The number of degrees of freedom        ....   57

    -----------------------------------------------------------------
                    Redundant Internal Coordinates


    -----------------------------------------------------------------
         Definition                    Initial Value    Approx d2E/dq
    -----------------------------------------------------------------
      1. B(F   1,C   0)                  1.3540         0.593408   
      2. B(F   2,C   0)                  1.3500         0.602219   
      3. B(F   3,C   0)                  1.3509         0.600288   
      4. B(C   4,C   0)                  1.5244         0.381392   
      5. B(O   5,C   4)                  1.4316         0.480211   
      6. B(H   6,C   4)                  1.0958         0.352525   
      7. B(H   7,C   4)                  1.0959         0.352433   
      8. B(C   8,O   5)                  1.4246         0.492780   
      9. B(F   9,C   8)                  1.3611         0.578199   
     10. B(F  10,C   8)                  1.3589         0.582859   
     11. B(C  11,C   8)                  1.5320         0.370774   
     12. B(H  12,C  11)                  1.0932         0.355900   
     13. B(F  13,C  11)                  1.3593         0.582039   
     14. B(F  14,C  11)                  1.3621         0.576147   
     15. A(F   2,C   0,F   3)          108.1903         0.419998   
     16. A(F   1,C   0,F   3)          107.4221         0.418895   
     17. A(F   3,C   0,C   4)          111.3732         0.391652   
     18. A(F   2,C   0,C   4)          111.9514         0.391872   
     19. A(F   1,C   0,F   2)          107.4274         0.419135   
     20. A(F   1,C   0,C   4)          110.2843         0.390864   
     21. A(C   0,C   4,O   5)          112.0840         0.378360   
     22. A(H   6,C   4,H   7)          108.8406         0.288894   
     23. A(O   5,C   4,H   7)          109.9460         0.334831   
     24. A(C   0,C   4,H   7)          108.8050         0.324276   
     25. A(O   5,C   4,H   6)          108.4988         0.334845   
     26. A(C   0,C   4,H   6)          108.6056         0.324289   
     27. A(C   4,O   5,C   8)          112.8437         0.393114   
     28. A(O   5,C   8,F  10)          106.8214         0.404970   
     29. A(O   5,C   8,F   9)          109.4141         0.404397   
     30. A(F  10,C   8,C  11)          110.2842         0.387725   
     31. A(F   9,C   8,C  11)          110.3053         0.387183   
     32. A(O   5,C   8,C  11)          113.9541         0.378202   
     33. A(F   9,C   8,F  10)          105.6833         0.414782   
     34. A(F  13,C  11,F  14)          106.2898         0.414417   
     35. A(H  12,C  11,F  14)          108.4079         0.344311   
     36. A(C   8,C  11,F  14)          110.6672         0.386943   
     37. A(H  12,C  11,F  13)          108.5098         0.344900   
     38. A(C   8,C  11,F  13)          111.4996         0.387630   
     39. A(C   8,C  11,H  12)          111.2835         0.323295   
     40. D(O   5,C   4,C   0,F   3)    -68.7961         0.011589   
     41. D(O   5,C   4,C   0,F   1)    172.0326         0.011589   
     42. D(H   6,C   4,C   0,F   2)    -67.3794         0.011589   
     43. D(H   6,C   4,C   0,F   3)    171.3444         0.011589   
     44. D(O   5,C   4,C   0,F   2)     52.4801         0.011589   
     45. D(H   6,C   4,C   0,F   1)     52.1730         0.011589   
     46. D(C   8,O   5,C   4,C   0)    171.3897         0.018192   
     47. D(C   8,O   5,C   4,H   7)     50.2377         0.018192   
     48. D(C   8,O   5,C   4,H   6)    -68.6884         0.018192   
     49. D(C  11,C   8,O   5,C   4)   -102.3737         0.019181   
     50. D(F  10,C   8,O   5,C   4)    135.5789         0.019181   
     51. D(F   9,C   8,O   5,C   4)     21.6265         0.019181   
     52. D(H  12,C  11,C   8,F  10)    -58.9256         0.010987   
     53. D(H  12,C  11,C   8,F   9)     57.4366         0.010987   
     54. D(H  12,C  11,C   8,O   5)   -179.0448         0.010987   
     55. D(F  13,C  11,C   8,F  10)     62.3816         0.010987   
     56. D(F  13,C  11,C   8,F   9)    178.7439         0.010987   
     57. D(F  13,C  11,C   8,O   5)    -57.7375         0.010987   
    -----------------------------------------------------------------

Number of atoms                         .... 15
Number of degrees of freedom            .... 57


         *************************************************************
         *                GEOMETRY OPTIMIZATION CYCLE   1            *
         *************************************************************
---------------------------------
CARTESIAN COORDINATES (ANGSTROEM)
---------------------------------
  C     -2.872030    1.210460    0.233690
  F     -3.859400    1.576300   -0.617580
  F     -3.213750    1.651900    1.462880
  F     -2.843300   -0.139800    0.263430
  C     -1.537230    1.784510   -0.227240
  O     -0.500130    1.577050    0.737640
  H     -1.655710    2.862540   -0.383970
  H     -1.261320    1.316730   -1.179060
  C      0.790180    1.929120    0.247060
  F      0.657330    2.794260   -0.795280
  F      1.406920    2.633010    1.232360
  C      1.648040    0.728390   -0.164640
  H      2.632530    1.046510   -0.517700
  F      1.819400   -0.138860    0.867930
  F      1.041630    0.022880   -1.159500

----------------------------
CARTESIAN COORDINATES (A.U.)
----------------------------
  NO LB      ZA    FRAG     MASS         X           Y           Z
   0 C     6.0000    0    12.011   -5.427350    2.287438    0.441610
   1 F     9.0000    0    18.998   -7.293209    2.978775   -1.167057
   2 F     9.0000    0    18.998   -6.073107    3.121639    2.764443
   3 F     9.0000    0    18.998   -5.373058   -0.264184    0.497811
   4 C     6.0000    0    12.011   -2.904944    3.372235   -0.429421
   5 O     8.0000    0    15.999   -0.945109    2.980193    1.393938
   6 H     1.0000    0     1.008   -3.128838    5.409417   -0.725598
   7 H     1.0000    0     1.008   -2.383549    2.488259   -2.228100
   8 C     6.0000    0    12.011    1.493224    3.645508    0.466876
   9 F     9.0000    0    18.998    1.242174    5.280386   -1.502861
  10 F     9.0000    0    18.998    2.658693    4.975668    2.328823
  11 C     6.0000    0    12.011    3.114344    1.376458   -0.311125
  12 H     1.0000    0     1.008    4.974761    1.977617   -0.978311
  13 F     9.0000    0    18.998    3.438168   -0.262407    1.640150
  14 F     9.0000    0    18.998    1.968395    0.043237   -2.191137

--------------------------------
INTERNAL COORDINATES (ANGSTROEM)
--------------------------------
 C      0   0   0     0.000000000000     0.00000000     0.00000000
 F      1   0   0     1.354030662651     0.00000000     0.00000000
 F      1   2   0     1.350018476948   107.42744779     0.00000000
 F      1   2   3     1.350893018747   107.42207317   116.19513108
 C      1   2   3     1.524362459325   110.28426477   237.74224814
 O      5   1   2     1.431645722936   112.08398077   172.03258784
 H      5   1   2     1.095787609074   108.60561427    52.17303971
 H      5   1   2     1.095858462074   108.80499212   293.83998369
 C      6   5   1     1.424612900896   112.84374623   171.38969233
 F      9   6   5     1.361098459958   109.41410148    21.62649306
 F      9   6   5     1.358913334139   106.82139017   135.57893220
 C      9   6   5     1.532048694559   113.95409816   257.62632934
 H     12   9   6     1.093193605040   111.28350053   180.95521506
 F     12   9   6     1.359296736184   111.49955310   302.26247830
 F     12   9   6     1.362066029163   110.66718381    60.34819005

---------------------------
INTERNAL COORDINATES (A.U.)
---------------------------
 C      0   0   0     0.000000000000     0.00000000     0.00000000
 F      1   0   0     2.558747129343     0.00000000     0.00000000
 F      1   2   0     2.551165197165   107.42744779     0.00000000
 F      1   2   3     2.552817841658   107.42207317   116.19513108
 C      1   2   3     2.880627576955   110.28426477   237.74224814
 O      5   1   2     2.705418337148   112.08398077   172.03258784
 H      5   1   2     2.070738482094   108.60561427    52.17303971
 H      5   1   2     2.070872374861   108.80499212   293.83998369
 C      6   5   1     2.692128229545   112.84374623   171.38969233
 F      9   6   5     2.572103330623   109.41410148    21.62649306
 F      9   6   5     2.567974041256   106.82139017   135.57893220
 C      9   6   5     2.895152456548   113.95409816   257.62632934
 H     12   9   6     2.065836524879   111.28350053   180.95521506
 F     12   9   6     2.568698566120   111.49955310   302.26247830
 F     12   9   6     2.573931771436   110.66718381    60.34819005

---------------------
BASIS SET INFORMATION
---------------------
There are 4 groups of distinct atoms

 Group   1 Type C   : 18s5p2d1f contracted to 4s3p2d1f pattern {8811/311/11/1}
 Group   2 Type F   : 18s5p2d1f contracted to 4s3p2d1f pattern {8811/311/11/1}
 Group   3 Type O   : 18s5p2d1f contracted to 4s3p2d1f pattern {8811/311/11/1}
 Group   4 Type H   : 5s2p1d contracted to 3s2p1d pattern {311/11/1}

Atom   0C    basis set group =>   1
Atom   1F    basis set group =>   2
Atom   2F    basis set group =>   2
Atom   3F    basis set group =>   2
Atom   4C    basis set group =>   1
Atom   5O    basis set group =>   3
Atom   6H    basis set group =>   4
Atom   7H    basis set group =>   4
Atom   8C    basis set group =>   1
Atom   9F    basis set group =>   2
Atom  10F    basis set group =>   2
Atom  11C    basis set group =>   1
Atom  12H    basis set group =>   4
Atom  13F    basis set group =>   2
Atom  14F    basis set group =>   2
---------------------------------
AUXILIARY/J BASIS SET INFORMATION
---------------------------------
There are 4 groups of distinct atoms

 Group   1 Type C   : 12s5p4d2f1g contracted to 6s4p3d1f1g pattern {711111/2111/211/2/1}
 Group   2 Type F   : 12s5p4d2f1g contracted to 6s4p3d1f1g pattern {711111/2111/211/2/1}
 Group   3 Type O   : 12s5p4d2f1g contracted to 6s4p3d1f1g pattern {711111/2111/211/2/1}
 Group   4 Type H   : 5s2p1d contracted to 3s1p1d pattern {311/2/1}

Atom   0C    basis set group =>   1
Atom   1F    basis set group =>   2
Atom   2F    basis set group =>   2
Atom   3F    basis set group =>   2
Atom   4C    basis set group =>   1
Atom   5O    basis set group =>   3
Atom   6H    basis set group =>   4
Atom   7H    basis set group =>   4
Atom   8C    basis set group =>   1
Atom   9F    basis set group =>   2
Atom  10F    basis set group =>   2
Atom  11C    basis set group =>   1
Atom  12H    basis set group =>   4
Atom  13F    basis set group =>   2
Atom  14F    basis set group =>   2
------------------------------------------------------------------------------
                             ORCA STARTUP CALCULATIONS
                           -- RI-GTO INTEGRALS CHOSEN --
------------------------------------------------------------------------------
------------------------------------------------------------------------------
                   ___                                                        
                  /   \      - P O W E R E D   B Y -                         
                 /     \                                                     
                 |  |  |   _    _      __       _____    __    __             
                 |  |  |  | |  | |    /  \     |  _  \  |  |  /  |          
                  \  \/   | |  | |   /    \    | | | |  |  | /  /          
                 / \  \   | |__| |  /  /\  \   | |_| |  |  |/  /          
                |  |  |   |  __  | /  /__\  \  |    /   |      \           
                |  |  |   | |  | | |   __   |  |    \   |  |\   \          
                \     /   | |  | | |  |  |  |  | |\  \  |  | \   \       
                 \___/    |_|  |_| |__|  |__|  |_| \__\ |__|  \__/        
                                                                              
                      - O R C A' S   B I G   F R I E N D -                    
                                      &                                       
                       - I N T E G R A L  F E E D E R -                       
                                                                              
 v1 FN, 2020, v2 2021, v3 2022-2024                                           
------------------------------------------------------------------------------


----------------------
SHARK INTEGRAL PACKAGE
----------------------

Number of atoms                             ...     15
Number of basis functions                   ...    474
Number of shells                            ...    210
Maximum angular momentum                    ...      3
Integral batch strategy                     ... SHARK/LIBINT Hybrid
RI-J (if used) integral strategy            ... SPLIT-RIJ (Revised 2003 algorithm where possible)
Printlevel                                  ...      1
Contraction scheme used                     ... PARTIAL GENERAL contraction
Prescreening option                         ... SCHWARTZ
   Thresh                                   ... 2.500e-11
   Tcut                                     ... 2.500e-12
   Tpresel                                  ... 2.500e-12 
Coulomb Range Separation                    ... NOT USED
Exchange Range Separation                   ... NOT USED
Multipole approximations                    ... NOT USED
Finite Nucleus Model                        ... NOT USED
CABS basis                                  ... NOT available
Auxiliary Coulomb fitting basis             ... AVAILABLE
   # of basis functions in Aux-J            ...    621
   # of shells in Aux-J                     ...    195
   Maximum angular momentum in Aux-J        ...      4
Auxiliary J/K fitting basis                 ... NOT available
Auxiliary Correlation fitting basis         ... NOT available
Auxiliary 'external' fitting basis          ... NOT available

Checking pre-screening integrals            ... done (  0.0 sec) Dimension = 210
Save PGC pre-screening integrals            ... done (  0.0 sec) Dimension = 210
Calculate PGC overlap integrals             ... done (  0.0 sec) Dimension = 138
Calculating pre-screening integrals (ORCA)  ... done (  0.2 sec) Dimension = 138
Shell pair information
Shell pair cut-off parameter TPreSel        ...   2.5e-12
Total number of shell pairs                 ...     22155
Shell pairs after pre-screening             ...     13235
Total number of primitive shell pairs       ...     28965
Primitive shell pairs kept                  ...     15991
          la=0 lb=0:   3688 shell pairs
          la=1 lb=0:   3834 shell pairs
          la=1 lb=1:    783 shell pairs
          la=2 lb=0:   2164 shell pairs
          la=2 lb=1:    929 shell pairs
          la=2 lb=2:    289 shell pairs
          la=3 lb=0:    847 shell pairs
          la=3 lb=1:    408 shell pairs
          la=3 lb=2:    237 shell pairs
          la=3 lb=3:     56 shell pairs

Checking whether 4 symmetric matrices of dimension 474 fit in memory
:Max Core in MB      =   4096.00
 MB in use           =     17.60
 MB left             =   4078.40
 MB needed           =      3.44
 Data fit in memory  = YES
Calculating RI/J V-Matrix + Cholesky decomp.... done (  0.0 sec)
Calculating Nuclear repulsion               ... done (  0.0 sec) ENN=    844.134696733197 Eh

Diagonalization of the overlap matrix:
Smallest eigenvalue                        ... 7.677e-04
Time for diagonalization                   ...    0.018 sec
Threshold for overlap eigenvalues          ... 1.000e-07
Number of eigenvalues below threshold      ... 0
Time for construction of square roots      ...    0.007 sec
Total time needed                          ...    0.025 sec

-------------------
DFT GRID GENERATION
-------------------

General Integration Accuracy     IntAcc      ... 4.388
Radial Grid Type                 RadialGrid  ... OptM3 with GC (2021)
Angular Grid (max. ang.)         AngularGrid ... 4 (Lebedev-302)
Angular grid pruning method      GridPruning ... 4 (adaptive)
Weight generation scheme         WeightScheme... mBecke (2022)
Basis function cutoff            BFCut       ... 1.0000e-11
Integration weight cutoff        WCut        ... 1.0000e-14
Partially contracted basis set               ... off
Rotationally invariant grid construction     ... off
Angular grids for H and He will be reduced by one unit

Total number of grid points                  ...    82606
Total number of batches                      ...     1297
Average number of points per batch           ...       63
Average number of grid points per atom       ...     5507

---------------------
SHARK GRID GENERATION
---------------------

General Integration Accuracy     IntAcc      ... 4.388
Radial Grid Type                 RadialGrid  ... OptM3 with GC (2021)
Angular Grid (max. ang.)         AngularGrid ... 4 (Lebedev-302)
Angular grid pruning method      GridPruning ... 4 (adaptive)
Weight generation scheme         WeightScheme... mBecke (2022)
Basis function cutoff            BFCut       ... 1.0000e-11
Integration weight cutoff        WCut        ... 1.0000e-14
Partially contracted basis set               ... off
Rotationally invariant grid construction     ... off
Angular grids for H and He will be reduced by one unit
Steep s-basis detected: some atoms will have their radial
                        grid points doubled.

Total number of grid points                  ...   156526
Total number of batches                      ...     2453
Average number of points per batch           ...       63
Average number of grid points per atom       ...    10435

--------------------
COSX GRID GENERATION
--------------------

GRIDX 1
-------
General Integration Accuracy     IntAcc      ... 3.816
Radial Grid Type                 RadialGrid  ... OptM3 with GC (2021)
Angular Grid (max. ang.)         AngularGrid ... 1 (Lebedev-50)
Angular grid pruning method      GridPruning ... 4 (adaptive)
Weight generation scheme         WeightScheme... mBecke (2022)
Basis function cutoff            BFCut       ... 1.0000e-11
Integration weight cutoff        WCut        ... 1.0000e-14
Partially contracted basis set               ... on
Rotationally invariant grid construction     ... off
Angular grids for H and He will be reduced by one unit

Total number of grid points                  ...    10415
Total number of batches                      ...       89
Average number of points per batch           ...      117
Average number of grid points per atom       ...      694
UseSFitting                                  ... on

GRIDX 2
-------
General Integration Accuracy     IntAcc      ... 4.020
Radial Grid Type                 RadialGrid  ... OptM3 with GC (2021)
Angular Grid (max. ang.)         AngularGrid ... 2 (Lebedev-110)
Angular grid pruning method      GridPruning ... 4 (adaptive)
Weight generation scheme         WeightScheme... mBecke (2022)
Basis function cutoff            BFCut       ... 1.0000e-11
Integration weight cutoff        WCut        ... 1.0000e-14
Partially contracted basis set               ... on
Rotationally invariant grid construction     ... off
Angular grids for H and He will be reduced by one unit

Total number of grid points                  ...    24170
Total number of batches                      ...      197
Average number of points per batch           ...      122
Average number of grid points per atom       ...     1611
UseSFitting                                  ... on

GRIDX 3
-------
General Integration Accuracy     IntAcc      ... 4.338
Radial Grid Type                 RadialGrid  ... OptM3 with GC (2021)
Angular Grid (max. ang.)         AngularGrid ... 3 (Lebedev-194)
Angular grid pruning method      GridPruning ... 4 (adaptive)
Weight generation scheme         WeightScheme... mBecke (2022)
Basis function cutoff            BFCut       ... 1.0000e-11
Integration weight cutoff        WCut        ... 1.0000e-14
Partially contracted basis set               ... on
Rotationally invariant grid construction     ... off
Angular grids for H and He will be reduced by one unit

Total number of grid points                  ...    53568
Total number of batches                      ...      426
Average number of points per batch           ...      125
Average number of grid points per atom       ...     3571
UseSFitting                                  ... on
Grids setup in   4.4 sec
Initializing property integral containers    ... done (  0.0 sec)

SHARK setup successfully completed in   4.9 seconds

Maximum memory used throughout the entire STARTUP-calculation: 80.5 MB
-------------------------------------------------------------------------------
                                 ORCA GUESS
                   Start orbitals & Density for SCF / CASSCF
-------------------------------------------------------------------------------

------------
SCF SETTINGS
------------
Hamiltonian:
 Density Functional     Method          .... DFT(GTOs)
 Exchange Functional    Exchange        .... B88
   X-Alpha parameter    XAlpha          ....  0.666667
   Becke's b parameter  XBeta           ....  0.004200
 Correlation Functional Correlation     .... LYP
 LDA part of GGA corr.  LDAOpt          .... VWN-5
 Gradients option       PostSCFGGA      .... off
 Hybrid DFT is turned on
   Fraction HF Exchange ScalHFX         ....  0.200000
   Scaling of DF-GGA-X  ScalDFX         ....  0.720000
   Scaling of DF-GGA-C  ScalDFC         ....  0.810000
   Scaling of DF-LDA-C  ScalLDAC        ....  1.000000
   Perturbative correction              ....  0.000000
   NL short-range parameter             ....  4.800000
 RI-approximation to the Coulomb term is turned on
   Number of AuxJ basis functions       .... 621
   RIJ-COSX (HFX calculated with COS-X)).... on


General Settings:
 Integral files         IntName         .... TFTFE_C3
 Hartree-Fock type      HFTyp           .... RHF
 Total Charge           Charge          ....    0
 Multiplicity           Mult            ....    1
 Number of Electrons    NEL             ....   98
 Basis Dimension        Dim             ....  402
 Nuclear Repulsion      ENuc            ....    844.1346967332 Eh

Convergence Acceleration:
 AO-DIIS                CNVDIIS         .... on
   Start iteration      DIISMaxIt       ....    12
   Startup error        DIISStart       ....  0.200000
   # of expansion vecs  DIISMaxEq       ....     5
   Bias factor          DIISBfac        ....   1.050
   Max. coefficient     DIISMaxC        ....  10.000
 MO-DIIS                CNVKDIIS        .... off
 Trust-Rad. Augm. Hess. CNVTRAH         .... auto
   Auto Start mean grad. ratio tolernc. ....  1.125000
   Auto Start start iteration           ....    50
   Auto Start num. interpolation iter.  ....    10
   Max. Number of Micro iterations      ....    24
   Max. Number of Macro iterations      .... Maxiter - #DIIS iter
   Number of Davidson start vectors     ....     2
   Converg. threshold    (grad. norm)   ....   1.000e-05
   Grad. Scal. Fac. for Micro threshold ....   0.100
   Minimum threshold for Micro iter.    ....   1.000e-02
   NR start threshold (gradient norm)   ....   1.000e-04
   Initial trust radius                 ....   0.400
   Minimum AH scaling param. (alpha)    ....   1.000
   Maximum AH scaling param. (alpha)    .... 1000.000
   Quad. conv. algorithm                .... NR
   White noise on init. David. guess    .... on
   Maximum white noise                  ....   0.010
   Pseudo random numbers                .... off
   Inactive MOs                         .... canonical
   Orbital update algorithm             .... Taylor
   Preconditioner                       .... Diag
   Full preconditioner red. dimension   ....   250
 SOSCF                 CNVSOSCF           .... on
   Start iteration     SOSCFMaxIt         ....   150
   Startup grad/error  SOSCFStart         ....  0.003300
   Hessian update      SOSCFHessUp        .... L-BFGS
   Autom. constraints  SOSCFAutoConstrain .... off
 Level Shifting         CNVShift        .... on
   Level shift para.    LevelShift      ....    0.2500
   Turn off err/grad.   ShiftErr        ....    0.0010
 Zerner damping         CNVZerner       .... off
 Static damping         CNVDamp         .... on
   Fraction old density DampFac         ....    0.7000
   Max. Damping (<1)    DampMax         ....    0.9800
   Min. Damping (>=0)   DampMin         ....    0.0000
   Turn off err/grad.   DampErr         ....    0.1000

SCF Procedure:
 Maximum # iterations   MaxIter         ....   125
 SCF integral mode      SCFMode         .... Direct
   Integral package                     .... SHARK and LIBINT hybrid scheme
 Reset frequency        DirectResetFreq ....    20
 Integral Threshold     Thresh          ....  2.500e-11 Eh
 Primitive CutOff       TCut            ....  2.500e-12 Eh

Convergence Tolerance:
 Convergence Check Mode ConvCheckMode   .... Total+1el-Energy
 Convergence forced     ConvForced      .... 0
 Energy Change          TolE            ....  1.000e-08 Eh
 1-El. energy change                    ....  1.000e-05 Eh
 Orbital Gradient       TolG            ....  1.000e-05
 Orbital Rotation angle TolX            ....  1.000e-05
 DIIS Error             TolErr          ....  5.000e-07

------------------------------
INITIAL GUESS: MODEL POTENTIAL
------------------------------
Loading Hartree-Fock densities                     ... done
Calculating cut-offs                               ... done
Initializing the effective Hamiltonian             ... done
Setting up the integral package (SHARK)            ... done
Starting the Coulomb interaction                   ... done (   0.4 sec)
Making the grid                                    ... done (   0.2 sec)
Mapping shells                                     ... done
Starting the XC term evaluation                    ... done (   0.4 sec)
  promolecular density results
     # of electrons  =     97.999328281
     EX              =   -100.044189215
     EC              =     -3.640173699
     EX+EC           =   -103.684362914
Transforming the Hamiltonian                       ... done (   0.0 sec)
Diagonalizing the Hamiltonian                      ... done (   0.0 sec)
Back transforming the eigenvectors                 ... done (   0.0 sec)
Now organizing SCF variables                       ... done
                      ------------------
                      INITIAL GUESS DONE (   1.1 sec)
                      ------------------
             **** ENERGY FILE WAS UPDATED (TFTFE_C3.en.tmp) ****
Finished Guess after   1.2 sec
Maximum memory used throughout the entire GUESS-calculation: 40.5 MB

-------------------------------------------------------------------------------------------
                                      ORCA LEAN-SCF
                              memory conserving SCF solver
-------------------------------------------------------------------------------------------

----------------------------------------D-I-I-S--------------------------------------------
Iteration    Energy (Eh)           Delta-E    RMSDP     MaxDP     DIISErr   Damp  Time(sec)
-------------------------------------------------------------------------------------------
               ***  Starting incremental Fock matrix formation  ***
    1    -928.0984728061176838     0.00e+00  7.73e-04  4.00e-02  2.25e-01  0.700  13.5
    2    -928.2120085385223547    -1.14e-01  4.31e-04  2.25e-02  8.54e-02  0.700   6.4
                               ***Turning on AO-DIIS***
    3    -928.2493037962011613    -3.73e-02  1.31e-04  5.37e-03  2.41e-02  0.700   6.0
    4    -928.2746161418964448    -2.53e-02  2.29e-04  7.00e-03  1.27e-02  0.000   5.6
                              *** Initializing SOSCF ***
---------------------------------------S-O-S-C-F--------------------------------------
Iteration    Energy (Eh)           Delta-E    RMSDP     MaxDP     MaxGrad    Time(sec)
--------------------------------------------------------------------------------------
    5    -928.3329908581662266    -5.84e-02  6.39e-05  4.53e-03  2.52e-03     6.2
               *** Restarting incremental Fock matrix formation ***
    6    -928.3330702117124247    -7.94e-05  2.47e-05  9.57e-04  2.92e-04    13.3
    7    -928.3330689153941648     1.30e-06  1.04e-05  3.56e-04  3.74e-04     9.7
    8    -928.3330772741977626    -8.36e-06  2.43e-06  9.82e-05  4.72e-05     9.2
    9    -928.3330773069848192    -3.28e-08  1.27e-06  5.98e-05  2.92e-05     8.2
   10    -928.3330773861117677    -7.91e-08  4.82e-07  1.40e-05  9.32e-06     7.2
   11    -928.3330774026002246    -1.65e-08  2.63e-07  8.53e-06  9.60e-06     6.6
   12    -928.3330773874459965     1.52e-08  5.60e-08  2.45e-06  8.27e-07     5.7
                  *** Gradient check signals convergence ***

               *****************************************************
               *                     SUCCESS                       *
               *           SCF CONVERGED AFTER  12 CYCLES          *
               *****************************************************

Recomputing exchange energy using gridx3       ... done (   23.717 sec)
Old exchange energy                            :    -20.074729532 Eh
New exchange energy                            :    -20.074678884 Eh
Exchange energy change after final integration :      0.000050647 Eh
Total energy after final integration           :   -928.333026733 Eh
             **** ENERGY FILE WAS UPDATED (TFTFE_C3.en.tmp) ****

----------------
TOTAL SCF ENERGY
----------------

Total Energy       :       -928.33302673277012 Eh          -25261.22591 eV

Components:
Nuclear Repulsion  :        844.13469673319730 Eh           22970.07287 eV
Electronic Energy  :      -1772.46777411336461 Eh          -48231.30017 eV
One Electron Energy:      -2966.54131782872628 Eh          -80723.69317 eV
Two Electron Energy:       1194.07354371536167 Eh           32492.39301 eV

Virial components:
Potential Energy   :      -1851.80742683835388 Eh          -50390.24187 eV
Kinetic Energy     :        923.47440010558364 Eh           25129.01596 eV
Virial Ratio       :          2.00526124668603

DFT components:
N(Alpha)           :       49.000020607749 electrons
N(Beta)            :       49.000020607749 electrons
N(Total)           :       98.000041215499 electrons
E(X)               :      -79.980239371346 Eh       
E(C)               :       -4.259826674276 Eh       
E(XC)              :      -84.240066045622 Eh       

---------------
SCF CONVERGENCE
---------------

  Last Energy change         ...   -1.5154e-08  Tolerance :   1.0000e-08
  Last MAX-Density change    ...    2.4472e-06  Tolerance :   1.0000e-07
  Last RMS-Density change    ...    5.5984e-08  Tolerance :   5.0000e-09
  Last DIIS Error            ...    2.5172e-03  Tolerance :   5.0000e-07
  Last Orbital Gradient      ...    8.2664e-07  Tolerance :   1.0000e-05
  Last Orbital Rotation      ...    1.0304e-06  Tolerance :   1.0000e-05


----------------
ORBITAL ENERGIES
----------------

  NO   OCC          E(Eh)            E(eV) 
   0   2.0000     -24.742231      -673.2703 
   1   2.0000     -24.731818      -672.9870 
   2   2.0000     -24.727861      -672.8793 
   3   2.0000     -24.727417      -672.8672 
   4   2.0000     -24.722526      -672.7341 
   5   2.0000     -24.722143      -672.7237 
   6   2.0000     -24.721951      -672.7185 
   7   2.0000     -19.198140      -522.4079 
   8   2.0000     -10.441448      -284.1263 
   9   2.0000     -10.436242      -283.9846 
  10   2.0000     -10.380044      -282.4553 
  11   2.0000     -10.276344      -279.6335 
  12   2.0000      -1.321302       -35.9544 
  13   2.0000      -1.314464       -35.7684 
  14   2.0000      -1.288112       -35.0513 
  15   2.0000      -1.245856       -33.9015 
  16   2.0000      -1.236384       -33.6437 
  17   2.0000      -1.234224       -33.5849 
  18   2.0000      -1.228980       -33.4422 
  19   2.0000      -1.091356       -29.6973 
  20   2.0000      -0.821300       -22.3487 
  21   2.0000      -0.780866       -21.2484 
  22   2.0000      -0.698529       -19.0079 
  23   2.0000      -0.672826       -18.3085 
  24   2.0000      -0.622635       -16.9428 
  25   2.0000      -0.616914       -16.7871 
  26   2.0000      -0.613898       -16.7050 
  27   2.0000      -0.604717       -16.4552 
  28   2.0000      -0.595885       -16.2149 
  29   2.0000      -0.577839       -15.7238 
  30   2.0000      -0.569800       -15.5050 
  31   2.0000      -0.561888       -15.2897 
  32   2.0000      -0.501858       -13.6563 
  33   2.0000      -0.491057       -13.3623 
  34   2.0000      -0.483018       -13.1436 
  35   2.0000      -0.477672       -12.9981 
  36   2.0000      -0.474426       -12.9098 
  37   2.0000      -0.471310       -12.8250 
  38   2.0000      -0.459057       -12.4916 
  39   2.0000      -0.447633       -12.1807 
  40   2.0000      -0.443201       -12.0601 
  41   2.0000      -0.436506       -11.8779 
  42   2.0000      -0.434253       -11.8166 
  43   2.0000      -0.430774       -11.7220 
  44   2.0000      -0.422439       -11.4951 
  45   2.0000      -0.420522       -11.4430 
  46   2.0000      -0.399435       -10.8692 
  47   2.0000      -0.377045       -10.2599 
  48   2.0000      -0.331517        -9.0210 
  49   0.0000       0.025446         0.6924 
  50   0.0000       0.026379         0.7178 
  51   0.0000       0.053313         1.4507 
  52   0.0000       0.062434         1.6989 
  53   0.0000       0.073364         1.9963 
  54   0.0000       0.097760         2.6602 
  55   0.0000       0.141652         3.8545 
  56   0.0000       0.159208         4.3323 
  57   0.0000       0.164373         4.4728 
  58   0.0000       0.173137         4.7113 
  59   0.0000       0.180700         4.9171 
*Only the first 10 virtual orbitals were printed.

                    ********************************
                    * MULLIKEN POPULATION ANALYSIS *
                    ********************************

-----------------------
MULLIKEN ATOMIC CHARGES
-----------------------
   0 C :    0.525202
   1 F :   -0.171805
   2 F :   -0.166462
   3 F :   -0.168762
   4 C :   -0.051613
   5 O :   -0.290927
   6 H :    0.103133
   7 H :    0.096779
   8 C :    0.439002
   9 F :   -0.185364
  10 F :   -0.158530
  11 C :    0.324706
  12 H :    0.071446
  13 F :   -0.177953
  14 F :   -0.188852
Sum of atomic charges:   -0.0000000

--------------------------------
MULLIKEN REDUCED ORBITAL CHARGES
--------------------------------
  0 C s       :     2.926744  s :     2.926744
      pz      :     0.656924  p :     2.174911
      px      :     0.842772
      py      :     0.675215
      dz2     :     0.070869  d :     0.332239
      dxz     :     0.060704
      dyz     :     0.075202
      dx2y2   :     0.061451
      dxy     :     0.064014
      f0      :     0.007412  f :     0.040904
      f+1     :     0.006721
      f-1     :     0.005080
      f+2     :     0.007502
      f-2     :     0.003911
      f+3     :     0.006606
      f-3     :     0.003672

  1 F s       :     3.887037  s :     3.887037
      pz      :     1.736561  p :     5.268601
      px      :     1.661877
      py      :     1.870163
      dz2     :     0.002257  d :     0.015402
      dxz     :     0.005943
      dyz     :     0.001806
      dx2y2   :     0.002958
      dxy     :     0.002437
      f0      :     0.000082  f :     0.000765
      f+1     :     0.000175
      f-1     :     0.000033
      f+2     :     0.000178
      f-2     :     0.000156
      f+3     :     0.000066
      f-3     :     0.000076

  2 F s       :     3.885651  s :     3.885651
      pz      :     1.542543  p :     5.264268
      px      :     1.869296
      py      :     1.852428
      dz2     :     0.006299  d :     0.015761
      dxz     :     0.003889
      dyz     :     0.004220
      dx2y2   :     0.000689
      dxy     :     0.000663
      f0      :     0.000219  f :     0.000783
      f+1     :     0.000178
      f-1     :     0.000234
      f+2     :     0.000065
      f-2     :     0.000074
      f+3     :     0.000007
      f-3     :     0.000005

  3 F s       :     3.885906  s :     3.885906
      pz      :     1.894880  p :     5.266371
      px      :     1.901427
      py      :     1.470064
      dz2     :     0.002415  d :     0.015706
      dxz     :     0.000133
      dyz     :     0.002942
      dx2y2   :     0.006849
      dxy     :     0.003367
      f0      :     0.000055  f :     0.000780
      f+1     :     0.000011
      f-1     :     0.000176
      f+2     :     0.000091
      f-2     :     0.000006
      f+3     :     0.000152
      f-3     :     0.000290

  4 C s       :     3.223336  s :     3.223336
      pz      :     0.876389  p :     2.719542
      px      :     0.816171
      py      :     1.026982
      dz2     :     0.020097  d :     0.098779
      dxz     :     0.022071
      dyz     :     0.014606
      dx2y2   :     0.018753
      dxy     :     0.023252
      f0      :     0.001108  f :     0.009956
      f+1     :     0.002077
      f-1     :     0.000763
      f+2     :     0.001730
      f-2     :     0.001864
      f+3     :     0.000934
      f-3     :     0.001479

  5 O s       :     3.752056  s :     3.752056
      pz      :     1.542858  p :     4.501645
      px      :     1.168059
      py      :     1.790729
      dz2     :     0.006295  d :     0.035114
      dxz     :     0.012617
      dyz     :     0.004063
      dx2y2   :     0.005952
      dxy     :     0.006187
      f0      :     0.000197  f :     0.002112
      f+1     :     0.000255
      f-1     :     0.000059
      f+2     :     0.000515
      f-2     :     0.000272
      f+3     :     0.000442
      f-3     :     0.000372

  6 H s       :     0.863883  s :     0.863883
      pz      :     0.009477  p :     0.030233
      px      :     0.009151
      py      :     0.011605
      dz2     :     0.000208  d :     0.002750
      dxz     :     0.000089
      dyz     :     0.000936
      dx2y2   :     0.000538
      dxy     :     0.000979

  7 H s       :     0.869137  s :     0.869137
      pz      :     0.011943  p :     0.031380
      px      :     0.010149
      py      :     0.009288
      dz2     :     0.000844  d :     0.002704
      dxz     :     0.000820
      dyz     :     0.000538
      dx2y2   :     0.000334
      dxy     :     0.000168

  8 C s       :     3.008701  s :     3.008701
      pz      :     0.644012  p :     2.200653
      px      :     0.757148
      py      :     0.799493
      dz2     :     0.066573  d :     0.317082
      dxz     :     0.073172
      dyz     :     0.053360
      dx2y2   :     0.055572
      dxy     :     0.068406
      f0      :     0.005761  f :     0.034562
      f+1     :     0.004379
      f-1     :     0.005002
      f+2     :     0.006475
      f-2     :     0.005738
      f+3     :     0.003799
      f-3     :     0.003408

  9 F s       :     3.895683  s :     3.895683
      pz      :     1.663470  p :     5.273458
      px      :     1.894248
      py      :     1.715740
      dz2     :     0.003446  d :     0.015485
      dxz     :     0.001872
      dyz     :     0.006435
      dx2y2   :     0.002107
      dxy     :     0.001625
      f0      :     0.000083  f :     0.000738
      f+1     :     0.000042
      f-1     :     0.000277
      f+2     :     0.000174
      f-2     :     0.000100
      f+3     :     0.000031
      f-3     :     0.000032

 10 F s       :     3.886066  s :     3.886066
      pz      :     1.673077  p :     5.256362
      px      :     1.816192
      py      :     1.767093
      dz2     :     0.002873  d :     0.015345
      dxz     :     0.003816
      dyz     :     0.004774
      dx2y2   :     0.001679
      dxy     :     0.002203
      f0      :     0.000077  f :     0.000757
      f+1     :     0.000128
      f-1     :     0.000157
      f+2     :     0.000100
      f-2     :     0.000212
      f+3     :     0.000041
      f-3     :     0.000042

 11 C s       :     3.089583  s :     3.089583
      pz      :     0.641480  p :     2.349028
      px      :     0.938480
      py      :     0.769068
      dz2     :     0.055625  d :     0.210714
      dxz     :     0.040694
      dyz     :     0.048236
      dx2y2   :     0.032574
      dxy     :     0.033585
      f0      :     0.004938  f :     0.025968
      f+1     :     0.002625
      f-1     :     0.004623
      f+2     :     0.005173
      f-2     :     0.004798
      f+3     :     0.002175
      f-3     :     0.001637

 12 H s       :     0.893892  s :     0.893892
      pz      :     0.006984  p :     0.032072
      px      :     0.017751
      py      :     0.007337
      dz2     :     0.000333  d :     0.002590
      dxz     :     0.000692
      dyz     :     0.000132
      dx2y2   :     0.000685
      dxy     :     0.000748

 13 F s       :     3.888962  s :     3.888962
      pz      :     1.663189  p :     5.272855
      px      :     1.904352
      py      :     1.705314
      dz2     :     0.003272  d :     0.015401
      dxz     :     0.002028
      dyz     :     0.006382
      dx2y2   :     0.001940
      dxy     :     0.001778
      f0      :     0.000080  f :     0.000735
      f+1     :     0.000043
      f-1     :     0.000264
      f+2     :     0.000169
      f-2     :     0.000111
      f+3     :     0.000036
      f-3     :     0.000032

 14 F s       :     3.892474  s :     3.892474
      pz      :     1.683659  p :     5.280627
      px      :     1.824620
      py      :     1.772348
      dz2     :     0.002912  d :     0.015034
      dxz     :     0.003423
      dyz     :     0.004673
      dx2y2   :     0.001733
      dxy     :     0.002294
      f0      :     0.000071  f :     0.000717
      f+1     :     0.000121
      f-1     :     0.000161
      f+2     :     0.000098
      f-2     :     0.000193
      f+3     :     0.000034
      f-3     :     0.000038



                     *******************************
                     * LOEWDIN POPULATION ANALYSIS *
                     *******************************

----------------------
LOEWDIN ATOMIC CHARGES
----------------------
   0 C :   -0.741337
   1 F :    0.238400
   2 F :    0.243510
   3 F :    0.240870
   4 C :   -0.086108
   5 O :    0.307926
   6 H :   -0.023200
   7 H :   -0.024414
   8 C :   -0.659679
   9 F :    0.244374
  10 F :    0.241569
  11 C :   -0.407392
  12 H :   -0.034562
  13 F :    0.234077
  14 F :    0.225966

-------------------------------
LOEWDIN REDUCED ORBITAL CHARGES
-------------------------------
  0 C s       :     2.770726  s :     2.770726
      pz      :     0.799077  p :     2.544342
      px      :     0.931072
      py      :     0.814194
      dz2     :     0.254959  d :     1.171222
      dxz     :     0.235303
      dyz     :     0.228862
      dx2y2   :     0.248565
      dxy     :     0.203534
      f0      :     0.042497  f :     0.255046
      f+1     :     0.039786
      f-1     :     0.037062
      f+2     :     0.042780
      f-2     :     0.029003
      f+3     :     0.036708
      f-3     :     0.027210

  1 F s       :     3.591006  s :     3.591006
      pz      :     1.703335  p :     5.141272
      px      :     1.640195
      py      :     1.797742
      dz2     :     0.004346  d :     0.027923
      dxz     :     0.010763
      dyz     :     0.003255
      dx2y2   :     0.005538
      dxy     :     0.004021
      f0      :     0.000165  f :     0.001400
      f+1     :     0.000329
      f-1     :     0.000057
      f+2     :     0.000302
      f-2     :     0.000274
      f+3     :     0.000156
      f-3     :     0.000118

  2 F s       :     3.589020  s :     3.589020
      pz      :     1.563350  p :     5.137622
      px      :     1.791447
      py      :     1.782824
      dz2     :     0.011289  d :     0.028412
      dxz     :     0.007478
      dyz     :     0.007281
      dx2y2   :     0.001354
      dxy     :     0.001010
      f0      :     0.000396  f :     0.001437
      f+1     :     0.000352
      f-1     :     0.000375
      f+2     :     0.000164
      f-2     :     0.000126
      f+3     :     0.000013
      f-3     :     0.000011

  3 F s       :     3.589310  s :     3.589310
      pz      :     1.812359  p :     5.140031
      px      :     1.816595
      py      :     1.511077
      dz2     :     0.004194  d :     0.028358
      dxz     :     0.000178
      dyz     :     0.004854
      dx2y2   :     0.012620
      dxy     :     0.006512
      f0      :     0.000123  f :     0.001431
      f+1     :     0.000025
      f-1     :     0.000266
      f+2     :     0.000198
      f-2     :     0.000013
      f+3     :     0.000368
      f-3     :     0.000437

  4 C s       :     2.705623  s :     2.705623
      pz      :     0.907587  p :     2.788689
      px      :     0.860836
      py      :     1.020266
      dz2     :     0.113436  d :     0.520895
      dxz     :     0.126310
      dyz     :     0.075484
      dx2y2   :     0.114457
      dxy     :     0.091207
      f0      :     0.007200  f :     0.070901
      f+1     :     0.015846
      f-1     :     0.006197
      f+2     :     0.010808
      f-2     :     0.013836
      f+3     :     0.007057
      f-3     :     0.009957

  5 O s       :     3.268632  s :     3.268632
      pz      :     1.496146  p :     4.327629
      px      :     1.178987
      py      :     1.652496
      dz2     :     0.015171  d :     0.090114
      dxz     :     0.029047
      dyz     :     0.007763
      dx2y2   :     0.020983
      dxy     :     0.017150
      f0      :     0.000717  f :     0.005699
      f+1     :     0.001086
      f-1     :     0.000156
      f+2     :     0.001054
      f-2     :     0.001016
      f+3     :     0.000819
      f-3     :     0.000850

  6 H s       :     0.841122  s :     0.841122
      pz      :     0.036304  p :     0.152700
      px      :     0.034439
      py      :     0.081956
      dz2     :     0.002853  d :     0.029378
      dxz     :     0.000572
      dyz     :     0.009153
      dx2y2   :     0.008479
      dxy     :     0.008321

  7 H s       :     0.842217  s :     0.842217
      pz      :     0.070651  p :     0.152876
      px      :     0.035185
      py      :     0.047040
      dz2     :     0.009748  d :     0.029321
      dxz     :     0.007071
      dyz     :     0.008021
      dx2y2   :     0.002796
      dxy     :     0.001685

  8 C s       :     2.775657  s :     2.775657
      pz      :     0.786053  p :     2.565050
      px      :     0.874445
      py      :     0.904553
      dz2     :     0.208241  d :     1.099175
      dxz     :     0.228787
      dyz     :     0.249301
      dx2y2   :     0.183681
      dxy     :     0.229165
      f0      :     0.034232  f :     0.219797
      f+1     :     0.028839
      f-1     :     0.035290
      f+2     :     0.041536
      f-2     :     0.035120
      f+3     :     0.022479
      f-3     :     0.022301

  9 F s       :     3.587339  s :     3.587339
      pz      :     1.653797  p :     5.138032
      px      :     1.804402
      py      :     1.679833
      dz2     :     0.006647  d :     0.028855
      dxz     :     0.003783
      dyz     :     0.011950
      dx2y2   :     0.003711
      dxy     :     0.002764
      f0      :     0.000209  f :     0.001400
      f+1     :     0.000107
      f-1     :     0.000439
      f+2     :     0.000285
      f-2     :     0.000229
      f+3     :     0.000075
      f-3     :     0.000056

 10 F s       :     3.593156  s :     3.593156
      pz      :     1.657046  p :     5.135830
      px      :     1.761742
      py      :     1.717042
      dz2     :     0.005068  d :     0.028058
      dxz     :     0.006987
      dyz     :     0.008759
      dx2y2   :     0.003259
      dxy     :     0.003984
      f0      :     0.000167  f :     0.001387
      f+1     :     0.000227
      f-1     :     0.000260
      f+2     :     0.000243
      f-2     :     0.000327
      f+3     :     0.000067
      f-3     :     0.000097

 11 C s       :     2.757231  s :     2.757231
      pz      :     0.761917  p :     2.605539
      px      :     0.986714
      py      :     0.856908
      dz2     :     0.191321  d :     0.875489
      dxz     :     0.160405
      dyz     :     0.229580
      dx2y2   :     0.127743
      dxy     :     0.166440
      f0      :     0.029432  f :     0.169134
      f+1     :     0.018403
      f-1     :     0.034339
      f+2     :     0.032080
      f-2     :     0.029872
      f+3     :     0.012928
      f-3     :     0.012079

 12 H s       :     0.862231  s :     0.862231
      pz      :     0.030315  p :     0.143997
      px      :     0.080845
      py      :     0.032836
      dz2     :     0.003210  d :     0.028334
      dxz     :     0.007098
      dyz     :     0.001946
      dx2y2   :     0.007872
      dxy     :     0.008208

 13 F s       :     3.591780  s :     3.591780
      pz      :     1.648576  p :     5.144545
      px      :     1.827015
      py      :     1.668954
      dz2     :     0.006055  d :     0.028235
      dxz     :     0.004513
      dyz     :     0.010867
      dx2y2   :     0.003187
      dxy     :     0.003612
      f0      :     0.000186  f :     0.001362
      f+1     :     0.000113
      f-1     :     0.000397
      f+2     :     0.000259
      f-2     :     0.000273
      f+3     :     0.000087
      f-3     :     0.000047

 14 F s       :     3.592306  s :     3.592306
      pz      :     1.663680  p :     5.152335
      px      :     1.770287
      py      :     1.718367
      dz2     :     0.005784  d :     0.028049
      dxz     :     0.006576
      dyz     :     0.008178
      dx2y2   :     0.003279
      dxy     :     0.004233
      f0      :     0.000183  f :     0.001344
      f+1     :     0.000208
      f-1     :     0.000269
      f+2     :     0.000238
      f-2     :     0.000291
      f+3     :     0.000056
      f-3     :     0.000099



                      *****************************
                      * MAYER POPULATION ANALYSIS *
                      *****************************

  NA   - Mulliken gross atomic population
  ZA   - Total nuclear charge
  QA   - Mulliken gross atomic charge
  VA   - Mayer's total valence
  BVA  - Mayer's bonded valence
  FA   - Mayer's free valence

  ATOM       NA         ZA         QA         VA         BVA        FA
  0 C      5.4748     6.0000     0.5252     4.5395     4.5395    -0.0000
  1 F      9.1718     9.0000    -0.1718     1.2058     1.2058    -0.0000
  2 F      9.1665     9.0000    -0.1665     1.2147     1.2147     0.0000
  3 F      9.1688     9.0000    -0.1688     1.2125     1.2125     0.0000
  4 C      6.0516     6.0000    -0.0516     3.8908     3.8908    -0.0000
  5 O      8.2909     8.0000    -0.2909     2.1385     2.1385     0.0000
  6 H      0.8969     1.0000     0.1031     0.9934     0.9934    -0.0000
  7 H      0.9032     1.0000     0.0968     1.0040     1.0040     0.0000
  8 C      5.5610     6.0000     0.4390     4.3412     4.3412    -0.0000
  9 F      9.1854     9.0000    -0.1854     1.1740     1.1740     0.0000
 10 F      9.1585     9.0000    -0.1585     1.2200     1.2200     0.0000
 11 C      5.6753     6.0000     0.3247     4.2075     4.2075    -0.0000
 12 H      0.9286     1.0000     0.0714     0.9989     0.9989    -0.0000
 13 F      9.1780     9.0000    -0.1780     1.1829     1.1829     0.0000
 14 F      9.1889     9.0000    -0.1889     1.1666     1.1666     0.0000

  Mayer bond orders larger than 0.100000
B(  0-C ,  1-F ) :   1.1571 B(  0-C ,  2-F ) :   1.1831 B(  0-C ,  3-F ) :   1.1793 
B(  0-C ,  4-C ) :   0.9664 B(  4-C ,  5-O ) :   0.9606 B(  4-C ,  6-H ) :   0.9450 
B(  4-C ,  7-H ) :   0.9374 B(  5-O ,  8-C ) :   1.0986 B(  8-C ,  9-F ) :   1.0894 
B(  8-C , 10-F ) :   1.1888 B(  8-C , 11-C ) :   0.9214 B( 11-C , 12-H ) :   0.9652 
B( 11-C , 13-F ) :   1.1436 B( 11-C , 14-F ) :   1.1172 

-------
TIMINGS
-------

Total SCF time: 0 days 0 hours 2 min 6 sec 

Total time                  ....     126.262 sec
Sum of individual times     ....     121.732 sec  ( 96.4%)

SCF preparation             ....       0.170 sec  (  0.1%)
Fock matrix formation       ....     120.870 sec  ( 95.7%)
  Startup                   ....       0.009 sec  (  0.0% of F)
  Split-RI-J                ....       8.033 sec  (  6.6% of F)
  Chain of spheres X        ....     102.761 sec  ( 85.0% of F)
  XC integration            ....      14.461 sec  ( 12.0% of F)
    XC Preparation          ....       0.000 sec  (  0.0% of XC)
    Basis function eval.    ....       4.684 sec  ( 32.4% of XC)
    Density eval.           ....       4.196 sec  ( 29.0% of XC)
    XC-Functional eval.     ....       0.369 sec  (  2.6% of XC)
    XC-Potential eval.      ....       4.946 sec  ( 34.2% of XC)
Diagonalization             ....       0.000 sec  (  0.0%)
Density matrix formation    ....       0.043 sec  (  0.0%)
Total Energy calculation    ....       0.008 sec  (  0.0%)
Population analysis         ....       0.035 sec  (  0.0%)
Orbital Transformation      ....       0.086 sec  (  0.1%)
Orbital Orthonormalization  ....       0.000 sec  (  0.0%)
DIIS solution               ....       0.319 sec  (  0.3%)
SOSCF solution              ....       0.200 sec  (  0.2%)
Finished LeanSCF after 126.3 sec

Maximum memory used throughout the entire LEANSCF-calculation: 59.4 MB

------------------------------------------------------------------------------
                         ORCA PROPERTY INTEGRAL CALCULATIONS
------------------------------------------------------------------------------

GBWName                                   ... TFTFE_C3.gbw
Number of atoms                           ...     15
Number of basis functions                 ...    474
Max core memory                           ...   4096 MB

Dipole integrals                          ... YES
Quadrupole integrals                      ...  NO
Linear momentum integrals                 ...  NO
Angular momentum integrals                ...  NO
Higher moments length integrals           ...  NO
Higher moments velocity integrals         ...  NO
Kinetic energy integrals                  ...  NO
GIAO right hand sides                     ...  NO
GIAO dipole derivative integrals          ...  NO
SOC integrals                             ...  NO
EPR diamagnetic integrals (GIAO)          ...  NO
EPR gauge integrals                       ...  NO
Field gradient integrals                  ...  NO (   0 nuclei)
Spin-dipole/Fermi contact integrals       ...  NO (   0 nuclei)
Contact density integrals                 ...  NO (   0 nuclei)
Nucleus-orbit integrals                   ...  NO (   0 nuclei)
Geometric perturbations                   ...  NO (  15 nuclei)

Choice of electric origin   ... Center of mass
Position of electric origin ... ( -1.1976,  2.4368,  0.3268) 
Choice of magnetic origin   ... GIAO
Position of magnetic origin ... (  0.0000,  0.0000,  0.0000) 

Calculating integrals                     ... Electric Dipole (Length)     done (  0.0 sec)

Property integrals calculated in   0.0 sec

Maximum memory used throughout the entire PROPINT-calculation: 41.4 MB

-------------------------   --------------------
FINAL SINGLE POINT ENERGY      -928.333026732770
-------------------------   --------------------

------------------------------------------------------------------------------
                         ORCA SCF GRADIENT CALCULATION
------------------------------------------------------------------------------

Nuc. rep. gradient        (SHARK) ... done (  0.0 sec)
HCore & Overlap gradient  (SHARK) ... done (  0.5 sec)
Split-RIJ-J gradient      (SHARK) ... done (  3.3 sec)
done ( 56.7 sec)
XC gradient                       ... done (  8.0 sec)

------------------
CARTESIAN GRADIENT
------------------

   1   C   :   -0.001629054    0.005221581   -0.008620511
   2   F   :   -0.009248291    0.000606542   -0.002614020
   3   F   :   -0.002141737    0.003317668    0.006762746
   4   F   :    0.001001263   -0.006900283   -0.001590086
   5   C   :   -0.000587180   -0.008630783    0.009680880
   6   O   :   -0.021617252    0.000308338    0.011702865
   7   H   :    0.004971580    0.005013351    0.000464709
   8   H   :    0.006153844   -0.000675141   -0.003091113
   9   C   :    0.035512410   -0.014176506   -0.022714970
  10   F   :   -0.009686893    0.007701697    0.002653790
  11   F   :    0.000231131    0.013623958    0.006428086
  12   C   :   -0.010953944    0.015895168    0.001692821
  13   H   :    0.001598836   -0.002215956   -0.000622307
  14   F   :    0.002985382   -0.010894618   -0.000114709
  15   F   :    0.003409905   -0.008195017   -0.000018182

Difference to translation invariance:
           :   -0.0000000001   -0.0000000000    0.0000000001

Difference to rotation invariance:
           :    0.0005071326    0.0001278277   -0.0001068443

Norm of the Cartesian gradient     ...    0.0643064612
RMS gradient                       ...    0.0095862412
MAX gradient                       ...    0.0355124103

-------
TIMINGS
-------

Total SCF gradient time     ....       68.509 sec

Densities                   ....       0.003 sec  (  0.0%)
One electron gradient       ....       0.541 sec  (  0.8%)
RI-J Coulomb gradient       ....       3.324 sec  (  4.9%)
COSX gradient               ....      56.688 sec  ( 82.7%)
XC gradient                 ....       7.953 sec  ( 11.6%)

Maximum memory used throughout the entire SCFGRAD-calculation: 73.2 MB
------------------------------------------------------------------------------
                         ORCA GEOMETRY RELAXATION STEP
------------------------------------------------------------------------------

Reading the OPT-File                    .... done
Getting information on internals        .... done
Copying old internal coords+grads       .... done
Making the new internal coordinates     .... (2022 redundants) done
Validating the new internal coordinates .... (2022 redundants) done
Calculating the B-matrix                .... done
Calculating the G,G- and P matrices     .... done
Transforming gradient to internals      .... done
Projecting the internal gradient        .... done
Number of atoms                         ....  15
Number of internal coordinates          ....  57
Current Energy                          ....  -928.333026733 Eh
Current gradient norm                   ....     0.064306461 Eh/bohr
Maximum allowed component of the step   ....  0.300
Current trust radius                    ....  0.300
Evaluating the initial hessian          ....  (Almloef) done
Projecting the Hessian                  .... done
Forming the augmented Hessian           .... done
Diagonalizing the augmented Hessian     .... done
Last element of RFO vector              ....  0.980482372
Lowest eigenvalues of augmented Hessian:
 -0.010265162  0.010986913  0.011641109  0.018198513  0.019450952
Length of the computed step             ....  0.200520704
The final length of the internal step   ....  0.200520704
Converting the step to Cartesian space:
 Initial RMS(Int)=    0.0265596161
Transforming coordinates:
 Iter   0:  RMS(Cart)=    0.1081825356 RMS(Int)=    0.0262003154
 Iter   5:  RMS(Cart)=    0.0000002806 RMS(Int)=    0.0000002317
done
Storing new coordinates                 .... done

                                .--------------------.
          ----------------------|Geometry convergence|-------------------------
          Item                value                   Tolerance       Converged
          ---------------------------------------------------------------------
          RMS gradient        0.0081907958            0.0001000000      NO
          MAX gradient        0.0261795954            0.0003000000      NO
          RMS step            0.0265596161            0.0020000000      NO
          MAX step            0.0913488457            0.0040000000      NO
          -------------------------------------------------------------------------
          ........................................................
          Max(Bonds)      0.0271      Max(Angles)    3.72
          Max(Dihed)        5.23      Max(Improp)    0.00
          ---------------------------------------------------------------------

The optimization has not yet converged - more geometry cycles are needed


    ---------------------------------------------------------------------------
                         Redundant Internal Coordinates
                            (Angstroem and degrees)

        Definition                    Value    dE/dq     Step     New-Value
    ----------------------------------------------------------------------------
     1. B(F   1,C   0)                1.3540  0.008551 -0.0075    1.3465   
     2. B(F   2,C   0)                1.3500  0.007785 -0.0067    1.3433   
     3. B(F   3,C   0)                1.3509  0.006883 -0.0060    1.3449   
     4. B(C   4,C   0)                1.5244  0.007845 -0.0106    1.5138   
     5. B(O   5,C   4)                1.4316  0.000112 -0.0001    1.4315   
     6. B(H   6,C   4)                1.0958  0.004325 -0.0063    1.0895   
     7. B(H   7,C   4)                1.0959  0.004528 -0.0066    1.0893   
     8. B(C   8,O   5)                1.4246  0.025719 -0.0271    1.3976   
     9. B(F   9,C   8)                1.3611  0.003816 -0.0034    1.3577   
    10. B(F  10,C   8)                1.3589  0.011820 -0.0105    1.3484   
    11. B(C  11,C   8)                1.5320  0.002322 -0.0032    1.5288   
    12. B(H  12,C  11)                1.0932  0.000994 -0.0014    1.0918   
    13. B(F  13,C  11)                1.3593  0.007247 -0.0065    1.3528   
    14. B(F  14,C  11)                1.3621  0.002733 -0.0025    1.3596   
    15. A(F   2,C   0,F   3)          108.19  0.001885   -0.15    108.05   
    16. A(F   1,C   0,F   3)          107.42 -0.002252    0.27    107.69   
    17. A(F   3,C   0,C   4)          111.37 -0.003581    0.56    111.93   
[...]
     25      -0.011802  -0.002247  -0.007696  -0.099149  -0.034981  -0.013445
     26       0.064157  -0.049617   0.023905  -0.101260  -0.030407   0.001070
     27       0.012047  -0.008540   0.001128  -0.002076   0.002935   0.000657
     28      -0.002119   0.010052  -0.003237   0.015358   0.007769   0.003326
     29      -0.002403  -0.001409  -0.001777   0.001059  -0.001715  -0.001191
     30       0.005909  -0.005876  -0.001527   0.007471   0.005241   0.001204
     31      -0.000826   0.002205   0.001863   0.009013   0.002599   0.000991
     32      -0.008466   0.006227  -0.000734   0.022824   0.008597   0.001279
     33       0.018738  -0.016231  -0.027657  -0.085052  -0.005785  -0.000723
     34      -0.028764   0.013292   0.058442   0.165294   0.035937   0.007928
     35      -0.024194   0.015578  -0.090321   0.121067   0.036851  -0.001042
     36       0.074235  -0.076267   0.264965   0.205912   0.056092   0.016136
     37      -0.204741   0.199557  -0.507818  -0.737095  -0.174404  -0.039503
     38      -0.173082   0.162933   0.809279  -0.500008  -0.183785  -0.010529
     39       0.002458  -0.002643   0.021269   0.018252   0.002549   0.000552
     40       0.016648  -0.010198   0.007722  -0.019526  -0.003747  -0.000875
     41      -0.003931   0.002934   0.003477  -0.006773  -0.002378   0.000309
     42       0.009483  -0.007799  -0.021102   0.014118   0.002235   0.000633
     43       0.004718  -0.002908  -0.012264  -0.009534  -0.001413  -0.000408
     44       0.014446  -0.010033   0.000862  -0.016433  -0.005093   0.000819
                 42         43         44    
      0      -0.001196  -0.000087  -0.000052
      1      -0.000702   0.000026   0.002853
      2      -0.000653   0.000079  -0.000358
      3       0.000386   0.000013   0.000020
      4       0.000091  -0.000004  -0.000259
      5       0.000347  -0.000008   0.000052
      6      -0.000175   0.000029   0.000200
      7       0.000282  -0.000035  -0.000508
      8       0.000269  -0.000032  -0.000176
      9      -0.000118   0.000023  -0.000296
     10      -0.000045   0.000009  -0.000507
     11       0.000219  -0.000023   0.000410
     12       0.013742  -0.000429   0.002350
     13      -0.020765  -0.000100   0.093706
     14      -0.061973   0.002007  -0.019889
     15      -0.001939  -0.000613   0.000013
     16       0.000127  -0.000099  -0.000349
     17      -0.000621   0.000253   0.000261
     18      -0.059496   0.002442  -0.091151
     19      -0.459975   0.018791  -0.609029
     20       0.372791  -0.015088   0.516094
     21      -0.076033   0.001224   0.063462
     22       0.704298  -0.016816  -0.510562
     23       0.372516  -0.008779  -0.283659
     24       0.001295   0.000572  -0.000020
     25       0.000836   0.001695   0.000128
     26      -0.000613   0.000880  -0.000470
     27       0.000064  -0.000023   0.000188
     28      -0.000247  -0.000486  -0.000124
     29       0.000266   0.000066   0.000251
     30      -0.000160  -0.000248  -0.000077
     31      -0.000042  -0.000207   0.000006
     32      -0.000055  -0.000457  -0.000018
     33       0.001909   0.079641   0.000712
     34       0.000627   0.029401   0.000390
     35      -0.000759  -0.007461  -0.000105
     36      -0.027257  -0.925708  -0.007526
     37      -0.009820  -0.359586  -0.002970
     38       0.003305   0.074440   0.000538
     39      -0.000006  -0.000588  -0.000020
     40       0.000011   0.000538  -0.000037
     41       0.000047  -0.000499  -0.000001
     42       0.000321  -0.000154  -0.000047
     43       0.000048  -0.000369  -0.000090
     44       0.000170   0.000897   0.000065


-----------
IR SPECTRUM
-----------

 Mode   freq       eps      Int      T**2         TX        TY        TZ
       cm**-1   L/(mol*cm) km/mol    a.u.
----------------------------------------------------------------------------
  6:     21.88   0.000021    0.11  0.000302  (-0.007051 -0.014361 -0.006799)
  7:     32.61   0.000193    0.98  0.001850  (-0.012119  0.037253 -0.017761)
  8:     79.10   0.000462    2.34  0.001824  ( 0.007859 -0.034213  0.024319)
  9:     90.19   0.000205    1.04  0.000709  (-0.012579  0.023170 -0.003744)
 10:    148.60   0.000430    2.17  0.000902  ( 0.009029 -0.013284 -0.025383)
 11:    187.05   0.000797    4.03  0.001330  ( 0.022421  0.027967  0.006718)
 12:    216.04   0.000320    1.62  0.000462  ( 0.006359 -0.014211  0.014817)
 13:    293.84   0.000608    3.07  0.000645  (-0.022403 -0.009883  0.006760)
 14:    321.51   0.000085    0.43  0.000082  (-0.004577 -0.000183  0.007835)
 15:    357.23   0.000144    0.73  0.000126  ( 0.000096  0.011201  0.000789)
 16:    361.74   0.000200    1.01  0.000173  ( 0.006974 -0.010142 -0.004584)
 17:    435.12   0.000237    1.20  0.000170  (-0.003429 -0.010273 -0.007263)
 18:    512.19   0.002508   12.68  0.001528  (-0.037278 -0.009107 -0.007466)
 19:    530.86   0.000340    1.72  0.000200  (-0.004038 -0.011813  0.006620)
 20:    541.92   0.001597    8.07  0.000920  (-0.027465 -0.009291  0.008891)
 21:    573.79   0.005307   26.82  0.002886  ( 0.043972 -0.021252 -0.022380)
 22:    604.14   0.000365    1.84  0.000188  ( 0.011581  0.001457  0.007222)
 23:    661.98   0.002454   12.40  0.001157  ( 0.030695 -0.003747 -0.014163)
 24:    704.57   0.007459   37.69  0.003303  (-0.055480  0.006017  0.013755)
 25:    845.13   0.000126    0.64  0.000047  (-0.000285  0.005260  0.004346)
 26:    873.59   0.011612   58.68  0.004148  ( 0.047156 -0.025877 -0.035421)
 27:    973.50   0.007590   38.36  0.002433  ( 0.001409 -0.048988  0.005585)
 28:   1090.21   0.022839  115.42  0.006537  ( 0.051079  0.050578  0.037018)
 29:   1092.85   0.009041   45.69  0.002582  ( 0.007341 -0.049540 -0.008585)
 30:   1123.75   0.062916  317.95  0.017472  ( 0.006848  0.105175 -0.079769)
 31:   1136.07   0.010747   54.31  0.002952  (-0.028222  0.027868  0.037134)
 32:   1166.87   0.067668  341.97  0.018097  ( 0.090766  0.024503  0.096219)
 33:   1188.33   0.030612  154.70  0.008039  (-0.006547  0.084774 -0.028451)
 34:   1206.13   0.038755  195.85  0.010027  (-0.058258 -0.010475 -0.080768)
 35:   1266.86   0.068630  346.83  0.016906  ( 0.122460 -0.004600 -0.043451)
 36:   1307.51   0.014251   72.02  0.003401  (-0.026558  0.025985 -0.044952)
 37:   1324.31   0.026500  133.92  0.006245  ( 0.041982  0.062668  0.023554)
 38:   1366.95   0.001255    6.34  0.000286  (-0.007430  0.010589 -0.010913)
 39:   1410.52   0.000314    1.59  0.000069  ( 0.003906  0.004511 -0.005816)
 40:   1446.98   0.006521   32.95  0.001406  (-0.037383 -0.001559  0.002525)
 41:   1496.40   0.001184    5.98  0.000247  ( 0.010532 -0.002374 -0.011413)
 42:   3070.95   0.002491   12.59  0.000253  (-0.011443 -0.005346 -0.009677)
 43:   3091.83   0.004046   20.44  0.000408  ( 0.016876  0.010895  0.002198)
 44:   3130.79   0.000516    2.61  0.000051  (-0.001398  0.007032 -0.000184)

* The epsilon (eps) is given for a Dirac delta lineshape.
** The dipole moment derivative (T) already includes vibrational overlap.

The first frequency considered to be a vibration is 6
The total number of vibrations considered is 39


--------------------------
THERMOCHEMISTRY AT 298.15K
--------------------------

Temperature         ...   298.15 K
Pressure            ...     1.00 atm
Total Mass          ...   200.05 AMU
Quasi RRHO          ...     True
Cut-Off Frequency   ...     1.00 cm^-1

Throughout the following assumptions are being made:
  (1) The electronic state is orbitally nondegenerate
  (2) There are no thermally accessible electronically excited states
  (3) Hindered rotations indicated by low frequency modes are not
      treated as such but are treated as vibrations and this may
      cause some error
  (4) All equations used are the standard statistical mechanics
      equations for an ideal gas
  (5) All vibrations are strictly harmonic

freq.      21.88  E(vib)   ...       0.56 
freq.      32.61  E(vib)   ...       0.55 
freq.      79.10  E(vib)   ...       0.49 
freq.      90.19  E(vib)   ...       0.47 
freq.     148.60  E(vib)   ...       0.41 
freq.     187.05  E(vib)   ...       0.36 
freq.     216.04  E(vib)   ...       0.34 
freq.     293.84  E(vib)   ...       0.27 
freq.     321.51  E(vib)   ...       0.25 
freq.     357.23  E(vib)   ...       0.22 
freq.     361.74  E(vib)   ...       0.22 
freq.     435.12  E(vib)   ...       0.17 
freq.     512.19  E(vib)   ...       0.14 
freq.     530.86  E(vib)   ...       0.13 
freq.     541.92  E(vib)   ...       0.12 
freq.     573.79  E(vib)   ...       0.11 
freq.     604.14  E(vib)   ...       0.10 
freq.     661.98  E(vib)   ...       0.08 
freq.     704.57  E(vib)   ...       0.07 
freq.     845.13  E(vib)   ...       0.04 
freq.     873.59  E(vib)   ...       0.04 
freq.     973.50  E(vib)   ...       0.03 
freq.    1090.21  E(vib)   ...       0.02 
freq.    1092.85  E(vib)   ...       0.02 
freq.    1123.75  E(vib)   ...       0.01 
freq.    1136.07  E(vib)   ...       0.01 
freq.    1166.87  E(vib)   ...       0.01 
freq.    1188.33  E(vib)   ...       0.01 
freq.    1206.13  E(vib)   ...       0.01 
freq.    1266.86  E(vib)   ...       0.01 
freq.    1307.51  E(vib)   ...       0.01 
freq.    1324.31  E(vib)   ...       0.01 
freq.    1366.95  E(vib)   ...       0.01 
freq.    1410.52  E(vib)   ...       0.00 
freq.    1446.98  E(vib)   ...       0.00 
freq.    1496.40  E(vib)   ...       0.00 
freq.    3070.95  E(vib)   ...       0.00 
freq.    3091.83  E(vib)   ...       0.00 
freq.    3130.79  E(vib)   ...       0.00 

------------
INNER ENERGY
------------

The inner energy is: U= E(el) + E(ZPE) + E(vib) + E(rot) + E(trans)
    E(el)   - is the total energy from the electronic structure calculation
              = E(kin-el) + E(nuc-el) + E(el-el) + E(nuc-nuc)
    E(ZPE)  - the the zero temperature vibrational energy from the frequency calculation
    E(vib)  - the the finite temperature correction to E(ZPE) due to population
              of excited vibrational states
    E(rot)  - is the rotational thermal energy
    E(trans)- is the translational thermal energy

Summary of contributions to the inner energy U:
Electronic energy                ...   -928.34209811 Eh
Zero point energy                ...      0.08266083 Eh      51.87 kcal/mol
Thermal vibrational correction   ...      0.00842102 Eh       5.28 kcal/mol
Thermal rotational correction    ...      0.00141627 Eh       0.89 kcal/mol
Thermal translational correction ...      0.00141627 Eh       0.89 kcal/mol
-----------------------------------------------------------------------
Total thermal energy                   -928.24818372 Eh


Summary of corrections to the electronic energy:
(perhaps to be used in another calculation)
Total thermal correction                  0.01125356 Eh       7.06 kcal/mol
Non-thermal (ZPE) correction              0.08266083 Eh      51.87 kcal/mol
-----------------------------------------------------------------------
Total correction                          0.09391439 Eh      58.93 kcal/mol


--------
ENTHALPY
--------

The enthalpy is H = U + kB*T
                kB is Boltzmann's constant
Total thermal energy              ...   -928.24818372 Eh 
Thermal Enthalpy correction       ...      0.00094421 Eh       0.59 kcal/mol
-----------------------------------------------------------------------
Total Enthalpy                    ...   -928.24723951 Eh


Note: Only C1 symmetry has been detected, increase convergence thresholds 
      if your molecule has a higher symmetry. Symmetry factor of 1.0 is   
      used for the rotational entropy correction. 
 

Note: Rotational entropy computed according to Herzberg 
Infrared and Raman Spectra, Chapter V,1, Van Nostrand Reinhold, 1945 
Point Group:  C1, Symmetry Number:   1  
Rotational constants in cm-1:     0.050576     0.017256     0.016257 

Vibrational entropy computed according to the QRRHO of S. Grimme
Chem.Eur.J. 2012 18 9955 using a reference frequency of 100.0 cm-1


-------
ENTROPY
-------

The entropy contributions are T*S = T*(S(el)+S(vib)+S(rot)+S(trans))
     S(el)   - electronic entropy
     S(vib)  - vibrational entropy
     S(rot)  - rotational entropy
     S(trans)- translational entropy
The entropies will be listed as multiplied by the temperature to get
units of energy

Electronic entropy                ...      0.00000000 Eh      0.00 kcal/mol
Vibrational entropy               ...      0.01520357 Eh      9.54 kcal/mol
Rotational entropy                ...      0.01478080 Eh      9.28 kcal/mol
Translational entropy             ...      0.01985330 Eh     12.46 kcal/mol
-----------------------------------------------------------------------
Final entropy term                ...      0.04983767 Eh     31.27 kcal/mol

In case the symmetry of your molecule has not been determined correctly
or in case you have a reason to use a different symmetry number we print 
out the resulting rotational entropy values for sn=1,12:

 non-linear molecules -----------------------------------
|  sn= 1 | S(rot)=       0.01478080 Eh      9.28 kcal/mol|
|  sn= 2 | S(rot)=       0.01412634 Eh      8.86 kcal/mol|
|  sn= 3 | S(rot)=       0.01374351 Eh      8.62 kcal/mol|
|  sn= 4 | S(rot)=       0.01347189 Eh      8.45 kcal/mol|
|  sn= 5 | S(rot)=       0.01326120 Eh      8.32 kcal/mol|
|  sn= 6 | S(rot)=       0.01308905 Eh      8.21 kcal/mol|
|  sn= 7 | S(rot)=       0.01294351 Eh      8.12 kcal/mol|
|  sn= 8 | S(rot)=       0.01281743 Eh      8.04 kcal/mol|
|  sn= 9 | S(rot)=       0.01270622 Eh      7.97 kcal/mol|
|  sn=10 | S(rot)=       0.01260674 Eh      7.91 kcal/mol|
|  sn=11 | S(rot)=       0.01251675 Eh      7.85 kcal/mol|
|  sn=12 | S(rot)=       0.01243460 Eh      7.80 kcal/mol|
 linear molecules ---------------------------------------
|  Dinfh | S(rot)=       0.00921509 Eh      5.78 kcal/mol|
|  Cinfv | S(rot)=       0.00986954 Eh      6.19 kcal/mol|
 --------------------------------------------------------


-------------------
GIBBS FREE ENERGY
-------------------

The Gibbs free energy is G = H - T*S

Total enthalpy                    ...   -928.24723951 Eh 
Total entropy correction          ...     -0.04983767 Eh    -31.27 kcal/mol
-----------------------------------------------------------------------
Final Gibbs free energy         ...   -928.29707718 Eh

For completeness - the Gibbs free energy minus the electronic energy
G-E(el)                           ...      0.04502093 Eh     28.25 kcal/mol


Maximum memory used throughout the entire PROP-calculation: 140.2 MB

--------------------------------
SUGGESTED CITATIONS FOR THIS RUN
--------------------------------

Below you find a list of papers that are relevant to this ORCA run
We neither can nor want to force you to cite these papers, but we appreciate if you do
You receive ORCA, which is the product of decades of hard work by many enthusiastic individuals, for free
The only thing we kindly ask in return is that you cite our papers,
We deeply appreciate it, if you show your appreciation for ORCA by not just citing the generic ORCA reference.

Please note that relegating all ORCA citations to the supporting information does *not* help us.
SI sections are not indexed - citations you put there will not count into any citation statistics
But we need these citations in order to attract the funding resources that allow us to do what we are doing

Therefore, if you are a happy ORCA user, please consider citing a few of the papers listed below in the main body of your paper

In addition to the list printed below, the program has created the file TFTFE_C3.bibtex that contains the list in bibtex format
You can import this file easily into all common literature databanks and citation aid programs


List of essential papers. We consider these as the minimum necessary citations

  1. Neese, F.
     Software update: the ORCA program system, version 6.0
     WIRES Comput. Molec. Sci. 2025 15(1), e70019
     doi.org/10.1002/wcms.7019

List of papers to cite with high priority. The work reported in these papers was absolutely
necessary for this run to complete.
Our perspective: the developers of density functionals and basis sets usually get cited in chemistry papers
Good! But without the algorithms to do something with them, the functionals or basis sets would not do anything.
Hence, in our opinion, the algorithm design and method developments papers are equally worthy of getting cited

  1. Neese, F.
     An improvement of the resolution of the identity approximation for the formation of the Coulomb matrix
     J. Comp. Chem. 2003 24(14), 1740-1747
     doi.org/10.1002/jcc.10318
  2. Neese, F.; Wennmohs, F.; Hansen, A.; Becker, U.
     Efficient, approximate and parallel Hartree-Fock and hybrid DFT calculations. A 'chain-of-spheres' algorithm for the Hartree-Fock exchange
     Chem. Phys. 2009 356(1-3), 98-109
     doi.org/10.1016/j.chemphys.2008.10.036
  3. Bykov, D.; Petrenko, T.; Izsak, R.; Kossmann, S.; Becker, U.; Valeev, E.; Neese, F.
     Efficient implementation of the analytic second derivatives of Hartree-Fock and hybrid DFT energies: a detailed analysis of different approximations
     Molec. Phys. 2015 113 , 1961-1977
     doi.org/10.1080/00268976.2015.1025114
  4. Helmich-Paris, B.; de Souza, B.; Neese, F.; Izsák, R.
     An improved chain of spheres for exchange algorithm
     J. Chem. Phys. 2021 155(10), 104109
     doi.org/10.1063/5.0058766
  5. Neese, F.
     The SHARK Integral Generation and Digestion System
     J. Comp. Chem. 2022 44(3), 381
     doi.org/10.1002/jcc.26942

List of suggested additional citations. These are papers that are important in the 'surrounding' of 
of this run, or papers that preceded the highly important papers. If you like your results we are grateful for a citation.

  1. Izsak, R.; Neese, F.
     An overlap fitted chain of spheres exchange method
     J. Chem. Phys. 2011 135 , 144105
     doi.org/10.1063/1.3646921
  2. Izsak, R.; Hansen, A.; Neese, F.
     The resolution of identity and chain of spheres approximations for the LPNO-CCSD singles Fock term
     Molec. Phys. 2012 110 , 2413-2417
     doi.org/10.1080/00268976.2012.687466
  3. Neese, F.
     The ORCA program system
     WIRES Comput. Molec. Sci. 2012 2(1), 73-78
     doi.org/10.1002/wcms.81
  4. Izsak, R.; Neese, F.; Klopper, W.
     Robust fitting techniques in the chain of spheres approximation to the Fock exchange: The role of the complementary space
     J. Chem. Phys. 2013 139 , 
     doi.org/10.1063/1.4819264
  5. Neese, F.
     Software update: the ORCA program system, version 4.0
     WIRES Comput. Molec. Sci. 2018 8(1), 1-6
     doi.org/10.1002/wcms.1327
  6. Neese, F.; Wennmohs, F.; Becker, U.; Riplinger, C.
     The ORCA quantum chemistry program package
     J. Chem. Phys. 2020 152(22), 224108
     doi.org/10.1063/5.0004608
  7. Neese, F.
     Software update: The ORCA program system—Version 5.0
     WIRES Comput. Molec. Sci. 2022 12(1), e1606
     doi.org/10.1002/wcms.1606

List of optional additional citations

  1. Neese, F.
     Approximate second-order SCF convergence for spin unrestricted wavefunctions
     Chem. Phys. Lett. 2000 325(1-3), 93-98
     doi.org/10.1016/s0009-2614(00)00662-x

Timings for individual modules:

Sum of individual times          ...    24575.523 sec (= 409.592 min)
Startup calculation              ...       81.287 sec (=   1.355 min)   0.3 %
SCF iterations                   ...    21785.574 sec (= 363.093 min)  88.6 %
Property integrals               ...      317.147 sec (=   5.286 min)   1.3 %
SCF Response                     ...      267.403 sec (=   4.457 min)   1.1 %
Property calculations            ...     1019.935 sec (=  16.999 min)   4.2 %
SCF Gradient evaluation          ...     1104.119 sec (=  18.402 min)   4.5 %
Geometry relaxation              ...        0.057 sec (=   0.001 min)   0.0 %
                             ****ORCA TERMINATED NORMALLY****
TOTAL RUN TIME: 0 days 6 hours 49 minutes 36 seconds 584 msec
