
                                 *****************
                                 * O   R   C   A *
                                 *****************

                                            #,                                       
                                            ###                                      
                                            ####                                     
                                            #####                                    
                                            ######                                   
                                           ########,                                 
                                     ,,################,,,,,                         
                               ,,#################################,,                 
                          ,,##########################################,,             
                       ,#########################################, ''#####,          
                    ,#############################################,,   '####,        
                  ,##################################################,,,,####,       
                ,###########''''           ''''###############################       
              ,#####''   ,,,,##########,,,,          '''####'''          '####       
            ,##' ,,,,###########################,,,                        '##       
           ' ,,###''''                  '''############,,,                           
         ,,##''                                '''############,,,,        ,,,,,,###''
      ,#''                                            '''#######################'''  
     '                                                          ''''####''''         
             ,#######,   #######,   ,#######,      ##                                
            ,#'     '#,  ##    ##  ,#'     '#,    #''#        ,####,    ,#,          
            ##       ##  ##   ,#'  ##            #'  '#       #'       ,# #          
            ##       ##  #######   ##           ,######,      #####,      #          
            '#,     ,#'  ##    ##  '#,     ,#' ,#      #,     #,   #      #          
             '#######'   ##     ##  '#######'  #'      '#     '####' #    #          



                #########################################################
                #                        -***-                          #
                #          Department of theory and spectroscopy        #
                #                                                       #
                #                      Frank Neese                      #
                #                                                       #
                #     Directorship, Architecture, Infrastructure        #
                #                    SHARK, DRIVERS                     #
                #        Core code/Algorithms in most modules           #
                #                                                       #
                #        Max Planck Institute fuer Kohlenforschung      #
                #                Kaiser Wilhelm Platz 1                 #
                #                 D-45470 Muelheim/Ruhr                 #
                #                      Germany                          #
                #                                                       #
                #                  All rights reserved                  #
                #                        -***-                          #
                #########################################################


                         Program Version 6.1.0  -  RELEASE   -
                                (GIT: $679e74b$)
                          ($2025-06-10 18:02:51 +0200$)


 With contributions from (in alphabetic order):
[Max-Planck-Institut fuer Kohlenforschung]                               
  Daniel Aravena         : Magnetic Suceptibility                        
  Michael Atanasov       : Ab Initio Ligand Field Theory (pilot matlab implementation)
  Alexander A. Auer      : GIAO ZORA, VPT2 properties, NMR spectrum      
  Ute Becker             : All parallelization in ORCA, NUMFREQ, NUMCALC 
  Giovanni Bistoni       : ED, misc. LED, open-shell LED, HFLD           
  Dmytro Bykov           : pre 5.0 version of the SCF Hessian            
  Marcos Casanova-Páez   : Triplet and SCS-CIS(D). UHF-(DLPNO)-IP/EA/STEOM-CCSD. UHF-CVS-IP/STEOM-CCSD   
  Vijay G. Chilkuri      : MRCI spin determinant printing, contributions to CSF-ICE 
  Pauline Colinet        : FMM embedding                                 
  Dipayan Datta          : RHF DLPNO-CCSD density                        
  Achintya Kumar Dutta   : EOM-CC, STEOM-CC                              
  Nicolas Foglia         : Exact transition moments, OPA infrastructure, MCD improvements    
  Dmitry Ganyushin       : Spin-Orbit,Spin-Spin,Magnetic field MRCI      
  Miquel Garcia-Rates    : C-PCM and meta-GGA Hessian, CCSD/C-PCM, Gaussian charge scheme 
  Tiago L. C. Gouveia    : GS-ROHF, GS-ROCIS                             
  Yang Guo               : DLPNO-NEVPT2, F12-NEVPT2, CIM, IAO-localization        
  Andreas Hansen         : Spin unrestricted coupled pair/coupled cluster methods 
  Ingolf Harden          : AUTO-CI MPn and infrastructure                
  Benjamin Helmich-Paris : MC-RPA, TRAH-(SCF,CASSCF), AVAS, COSX integrals, SCF dyn. polar., MC-PDFT, srDFT 
  Lee Huntington         : MR-EOM, pCC                                   
  Robert Izsak           : Overlap fitted RIJCOSX, COSX-SCS-MP3, EOM     
  Riya Kayal             : Wick's Theorem for AUTO-CI, AUTO-CI UHF-CCSDT 
  Emily Kempfer          : AUTO-CI RHF CISDT and CCSDT, approximate NEVPT4
  Christian Kollmar      : KDIIS, OOCD, Brueckner-CCSD(T), CCSD density, CASPT2, CASPT2-K, improved NEVPT2 
  Axel Koslowski         : Symmetry handling                             
  Simone Kossmann        : meta-GGA functionals, TD-DFT gradient, OOMP2, (MP2 Hessian; deprecated post 5.0) 
  Lucas Lang             : DCDCAS, Hyperfine gauge corrections, ICE-SOC+SSC
  Marvin Lechner         : AUTO-CI (C++ implementation), FIC-MRCC        
  Spencer Leger          : CASSCF response                               
  Dagmar Lenk            : GEPOL surface, SMD, ORCA-2-JSON               
  Dimitrios Liakos       : Extrapolation schemes; Compound Job, Property file
  Dimitrios Manganas     : Further ROCIS development; embedding schemes. LFT, Crystal Embedding 
  Dimitrios Pantazis     : SARC Basis sets                               
  Anastasios Papadopoulos: AUTO-CI, single reference methods and gradients 
  Taras Petrenko         : pre 6.0 DFT Hessian and TD-DFT gradient,  ECA, NRVS 
  Petra Pikulova         : Analytic Raman intensities                    
  Peter Pinski           : DLPNO-MP2, DLPNO-MP2 Gradient                 
  Shashank Vittal Rao    : ES-AILFT, MagRelax                            
  Christoph Reimann      : Effective Core Potentials                     
  Marius Retegan         : Local ZFS, SOC                                
  Christoph Riplinger    : Optimizer, TS searches, QM/MM, DLPNO-CCSD(T), (RO)-DLPNO pert. Triples 
  Michael Roemelt        : Original ROCIS implementation, recursive CI coupling coefficients
  Masaaki Saitow         : Open-shell DLPNO-CCSD energy and density      
  Barbara Sandhoefer     : DKH picture change effects                    
  Yorick L. A. Schmerwitz: GMF and freeze-and-release deltaSCF, NEB S-IDPP initial path                    
  Kantharuban Sivalingam : CASSCF convergence/infrastructure, NEVPT2, NEVPT3, NEVPT4(SD), FIC-MRCI and CEPA variants
  Bernardo de Souza      : ESD, SOC TD-DFT                               
  Georgi L. Stoychev     : AutoAux, RI-MP2 NMR, DLPNO-MP2 response, X2C  
  Van Anh Tran           : RI-MP2 g-tensors                              
  Willem Van den Heuvel  : Paramagnetic NMR                              
  Zikuan Wang            : NOTCH, Electric field optimization            
  Frank Wennmohs         : Technical directorship and infrastructure     
  Hang Xu                : AUTO-CI-Response properties                   
                                                                         
[FACCTs GmbH]                                                            
  Markus Bursch, Nicolas Foglia, Miquel Garcia-Rates, Ingolf Harden, Hagen Neugebauer, Anastasios Papadopoulos, 
  Christoph Riplinger, Bernardo de Souza, Georgi L. Stoychev                                                    
                                                                 
  APM, various basis sets, CI-OPT, improved COSX, DLPNO-Multilevel,           
  DOCKER, DRACO, updates on ESD, Fragmentator, GOAT, IRC, LR-CPCM, L-BFGS, MBIS, meta-GGA TD-DFT gradient, ML-optimized integration grids, 
  MM, NACMEs, nearIR, NEB, NEB-TS, NL-DFT gradient (VV10), 2- and 3-layer-ONIOM, interface openCOSMO-RS, QMMM,   
  Crystal-QMMM, RESP, rigid body optimization, SF, symmetry and pop. for TD-DFT, various functionals, SOLVATOR                                   
                                                                         
[Other institutions]                                                     
  V. Asgeirsson          : NEB                                           
  Christoph Bannwarth    : sTDA-DFT, sTD-DFT, PBEh-3c, B97-3c, D3        
  Giovanni Bistoni       : ETS/NOCV, ADLD/ADEX, COVALED                  
  Martin Brehm           : Molecular dynamics                            
  Ronald Cardenas        : ETS/NOCV                                      
  Martina Colucci        : COVALED                                       
  Sebastian Ehlert       : rSCAN, r2SCAN, r2SCAN-3c, D4, dhf basis sets  
  Marvin Friede          : D4 for Fr, Ra, Ac-Lr                          
  Lars Goerigk           : TD-DFT with DH, B97 family of functionals     
  Stefan Grimme          : VdW corrections, initial TS optimization, DFT functionals, gCP, sTDA/sTD-DF 
  Waldemar Hujo          : DFT-NL                                        
  H. Jonsson             : NEB                                           
  Holger Kruse           : gCP                                           
  Marcel Mueller         : wB97X-3c, vDZP basis set                      
  Hagen Neugebauer       : wr2SCAN, Native XTB                           
  Gianluca Regni         : ADLD/ADEX                                     
  Tobias Risthaus        : pre 6.0 range-separated hybrid DFT and stability analysis
  Lukas Wittmann         : regularized MP2, r2SCAN double-hybrids, wr2SCAN        
                                                                         
We gratefully acknowledge several colleagues who have allowed us to      
interface, adapt or use parts of their codes:                            
  Ed Valeev, F. Pavosevic, A. Kumar             : LibInt (2-el integral package), F12 methods 
  Garnet Chan, S. Sharma, J. Yang, R. Olivares  : DMRG                   
  Ulf Ekstrom                                   : XCFun DFT Library      
  Mihaly Kallay                                 : mrcc  (arbitrary order and MRCC methods)
  Frank Weinhold                                : gennbo (NPA and NBO analysis)           
  Simon Mueller                                 : openCOSMO-RS                            
  Christopher J. Cramer and Donald G. Truhlar   : smd solvation model                     
  S Lehtola, MJT Oliveira, MAL Marques          : LibXC Library                           
  Liviu Ungur et al                             : ANISO software                          


 Your calculation uses the libint2 library for the computation of 2-el integrals
 For citations please refer to: http://libint.valeyev.net

 Your ORCA version has been built with support for libXC version: 7.0.0
 For citations please refer to: https://libxc.gitlab.io

 This ORCA versions uses:
   CBLAS   interface :  Fast vector & matrix operations
   LAPACKE interface :  Fast linear algebra routines
   SCALAPACK package :  Parallel linear algebra routines
   Shared memory     :  Shared parallel matrices
   BLAS/LAPACK       :  OpenBLAS 0.3.29  USE64BITINT DYNAMIC_ARCH NO_AFFINITY Haswell SINGLE_THREADED
        Core in use  :  Haswell
   Copyright (c) 2011-2014, The OpenBLAS Project


  ***********************************
  * Starting time: Wed Dec 31 16:39:01 2025
  * Host name:     BOOK-611GI2U5BQ
  * Process ID:    204733
  * Working dir.:  /home/a_limbo/IR_lab/TFTFE/B3LYP_cc_pVTZ
  ***********************************

Warning: RI is on but no J-basis has been assigned. Assigning Def2/J (nothing to worry about!)
================================================================================

----- Orbital basis set information -----
Your calculation utilizes the basis: cc-pVTZ 
       H, B-Ne : Obtained from the ccRepo (grant-hill.group.shef.ac.uk/ccrepo) Feb. 2017
                 T. H. Dunning, Jr., J. Chem. Phys. 90, 1007 (1989)
            He : Obtained from the ccRepo (grant-hill.group.shef.ac.uk/ccrepo) Feb. 2017
                 D. E. Woon, T. H. Dunning, Jr., J. Chem. Phys. 100, 2975 (1994)
  Li-Be, Na-Mg : Obtained from the ccRepo (grant-hill.group.shef.ac.uk/ccrepo) Feb. 2017
                 B. P. Prascher, D. E. Woon, K. A. Peterson, T. H. Dunning, Jr., A. K. Wilson, Theor. Chem. Acc. 128, 69 (2011)
         Al-Ar : Obtained from the ccRepo (grant-hill.group.shef.ac.uk/ccrepo) Feb. 2017
                 D. E. Woon, T. H. Dunning, Jr., J. Chem. Phys. 98, 1358 (1993)
            Ca : Obtained from the Peterson Research Group Website (tyr0.chem.wsu.edu/~kipeters) Feb. 2017
                 J. Koput, K. A. Peterson, J. Phys. Chem. 106, 9595 (2002)
         Sc-Zn : Obtained from the ccRepo (grant-hill.group.shef.ac.uk/ccrepo) Feb. 2017
                 N. B. Balabanov, K. A. Peterson, J. Chem. Phys. 123, 064107 (2005)
                 N. B. Balabanov, K. A. Peterson, J. Chem. Phys. 125, 074110 (2006)
         Ga-Kr : Obtained from the ccRepo (grant-hill.group.shef.ac.uk/ccrepo) Feb. 2017
                 A. K. Wilson, D. E. Woon, K. A. Peterson, T. H. Dunning, Jr., J. Chem. Phys. 110, 7667 (1999)
             Y : Obtained from the ccRepo (grant-hill.group.shef.ac.uk/ccrepo) Feb. 2017
                 K. A. Peterson, D. Figgen, M. Dolg, H. Stoll, J. Chem. Phys. 126, 124101 (2007)
        Ag, Au : Obtained from the Peterson Research Group Website (tyr0.chem.wsu.edu/~kipeters) Feb. 2017
                 K. A. Peterson, C. Puzzarini, Theor. Chem. Acc. 114, 283 (2005)

----- AuxJ basis set information -----
Your calculation utilizes the auxiliary basis: def2/J
   H-Rn: F. Weigend, Phys. Chem. Chem. Phys. 8, 1057 (2006).
   Fr-Lr: K. Eichkorn, F. Weigend, O. Treutler, R. Ahlrichs; Theor. Chem. Acc. 97, 119 (1997).

================================================================================
                                        WARNINGS
                       Please study these warnings very carefully!
================================================================================


WARNING: Geometry Optimization
  ===> : Switching off AutoStart
         For restart on a previous wavefunction, please use MOREAD

================================================================================
                                       INPUT FILE
================================================================================
NAME = TFTFE_C2.inp
|  1> # avogadro generated ORCA input file 
|  2> # Basic Mode
|  3> # 
|  4> ! B3LYP cc-pVTZ OPT FREQ 
|  5> 
|  6> * xyz 0 1
|  7>    C       -2.07321        0.81607       -0.08813
|  8>    F       -1.81331        1.90900       -0.83615
|  9>    F       -3.29339        0.98833        0.47347
| 10>    F       -2.15137       -0.25298       -0.90746
| 11>    C       -1.02235        0.62017        1.00174
| 12>    H       -1.01049        1.51363        1.63522
| 13>    H       -1.30641       -0.23833        1.61967
| 14>    O        0.27561        0.36956        0.45524
| 15>    C        1.34093        0.63414        1.36454
| 16>    F        2.48819        0.51428        0.64873
| 17>    C        1.38913       -0.25395        2.61742
| 18>    F        1.24529        1.94353        1.71865
| 19>    F        1.46126       -1.57102        2.29072
| 20>    F        2.48341        0.01965        3.37579
| 21>    H        0.50479       -0.10965        3.24371
| 22> *
| 23> 
| 24> 
| 25>                          ****END OF INPUT****
================================================================================

                       *****************************
                       * Geometry Optimization Run *
                       *****************************

Geometry optimization settings:
Update method            Update   .... BFGS
Choice of coordinates    CoordSys .... (2022) Redundant Internals
Initial Hessian          InHess   .... Almloef's Model
Max. no of cycles        MaxIter  .... 50

Convergence Tolerances:
Energy Change            TolE     ....  5.0000e-06 Eh
Max. Gradient            TolMAXG  ....  3.0000e-04 Eh/bohr
RMS Gradient             TolRMSG  ....  1.0000e-04 Eh/bohr
Max. Displacement        TolMAXD  ....  4.0000e-03 bohr
RMS Displacement         TolRMSD  ....  2.0000e-03 bohr
Strict Convergence                .... False

------------------------------------------------------------------------------
                        ORCA OPTIMIZATION COORDINATE SETUP
------------------------------------------------------------------------------

The optimization will be done in redundant internal coordinates (2022)
Making redundant internal coordinates   ...  (2022 redundants) done
Evaluating the initial hessian          ...  (Almloef) done
Evaluating the coordinates              ...  done
Calculating the B-matrix                .... done
Calculating the G-matrix                .... done
The number of degrees of freedom        ....   57

    -----------------------------------------------------------------
                    Redundant Internal Coordinates


    -----------------------------------------------------------------
         Definition                    Initial Value    Approx d2E/dq
    -----------------------------------------------------------------
      1. B(F   1,C   0)                  1.3497         0.603016   
      2. B(F   2,C   0)                  1.3542         0.592999   
      3. B(F   3,C   0)                  1.3492         0.604084   
      4. B(C   4,C   0)                  1.5266         0.378273   
      5. B(H   5,C   4)                  1.0953         0.353141   
      6. B(H   6,C   4)                  1.0952         0.353235   
      7. B(O   7,C   4)                  1.4304         0.482337   
      8. B(C   8,O   7)                  1.4254         0.491375   
      9. B(F   9,C   8)                  1.3576         0.585775   
     10. B(C  10,C   8)                  1.5365         0.364802   
     11. B(F  11,C   8)                  1.3598         0.580974   
     12. B(F  12,C  10)                  1.3589         0.582888   
     13. B(F  13,C  10)                  1.3592         0.582241   
     14. B(H  14,C  10)                  1.0932         0.355872   
     15. A(F   2,C   0,F   3)          107.4838         0.419315   
     16. A(F   1,C   0,F   3)          108.4352         0.420570   
     17. A(F   3,C   0,C   4)          111.8235         0.391522   
     18. A(F   2,C   0,C   4)          109.9068         0.390256   
     19. A(F   1,C   0,F   2)          107.4781         0.419183   
     20. A(F   1,C   0,C   4)          111.5328         0.391401   
     21. A(C   0,C   4,H   5)          108.4017         0.323945   
     22. A(H   6,C   4,O   7)          108.2739         0.335203   
     23. A(H   5,C   4,O   7)          110.7350         0.335188   
     24. A(C   0,C   4,O   7)          111.9837         0.378111   
     25. A(H   5,C   4,H   6)          108.4149         0.289076   
     26. A(C   0,C   4,H   6)          108.9561         0.323960   
     27. A(C   4,O   7,C   8)          113.6987         0.393222   
     28. A(O   7,C   8,C  10)          115.8708         0.376956   
     29. A(O   7,C   8,F   9)          106.1920         0.405123   
     30. A(C  10,C   8,F  11)          110.2697         0.386412   
     31. A(F   9,C   8,F  11)          106.3658         0.415504   
     32. A(O   7,C   8,F  11)          106.9956         0.404535   
     33. A(F   9,C   8,C  10)          110.6350         0.386966   
     34. A(F  13,C  10,H  14)          107.7612         0.344915   
     35. A(F  12,C  10,H  14)          107.9750         0.344980   
     36. A(C   8,C  10,H  14)          111.4370         0.322432   
     37. A(F  12,C  10,F  13)          106.6488         0.415300   
     38. A(C   8,C  10,F  13)          111.3385         0.386558   
     39. A(C   8,C  10,F  12)          111.4592         0.386633   
     40. D(H   5,C   4,C   0,F   3)   -179.6401         0.011410   
     41. D(H   5,C   4,C   0,F   1)     58.7449         0.011410   
     42. D(H   6,C   4,C   0,F   2)     57.4416         0.011410   
     43. D(H   6,C   4,C   0,F   3)    -61.8471         0.011410   
     44. D(H   5,C   4,C   0,F   2)    -60.3515         0.011410   
     45. D(H   6,C   4,C   0,F   1)    176.5380         0.011410   
     46. D(C   8,O   7,C   4,C   0)    159.5598         0.018357   
     47. D(C   8,O   7,C   4,H   6)    -80.2928         0.018357   
     48. D(C   8,O   7,C   4,H   5)     38.4397         0.018357   
     49. D(F  11,C   8,O   7,C   4)    -59.1154         0.019069   
     50. D(C  10,C   8,O   7,C   4)     64.3086         0.019069   
     51. D(F   9,C   8,O   7,C   4)   -172.4162         0.019069   
     52. D(F  12,C  10,C   8,F  11)    178.9270         0.010658   
     53. D(F  12,C  10,C   8,F   9)    -63.6837         0.010658   
     54. D(F  12,C  10,C   8,O   7)     57.2322         0.010658   
     55. D(F  13,C  10,C   8,F  11)    -62.1218         0.010658   
     56. D(F  13,C  10,C   8,F   9)     55.2675         0.010658   
     57. D(F  13,C  10,C   8,O   7)    176.1834         0.010658   
    -----------------------------------------------------------------

Number of atoms                         .... 15
Number of degrees of freedom            .... 57


         *************************************************************
         *                GEOMETRY OPTIMIZATION CYCLE   1            *
         *************************************************************
---------------------------------
CARTESIAN COORDINATES (ANGSTROEM)
---------------------------------
  C     -2.073210    0.816070   -0.088130
  F     -1.813310    1.909000   -0.836150
  F     -3.293390    0.988330    0.473470
  F     -2.151370   -0.252980   -0.907460
  C     -1.022350    0.620170    1.001740
  H     -1.010490    1.513630    1.635220
  H     -1.306410   -0.238330    1.619670
  O      0.275610    0.369560    0.455240
  C      1.340930    0.634140    1.364540
  F      2.488190    0.514280    0.648730
  C      1.389130   -0.253950    2.617420
  F      1.245290    1.943530    1.718650
  F      1.461260   -1.571020    2.290720
  F      2.483410    0.019650    3.375790
  H      0.504790   -0.109650    3.243710

----------------------------
CARTESIAN COORDINATES (A.U.)
----------------------------
  NO LB      ZA    FRAG     MASS         X           Y           Z
   0 C     6.0000    0    12.011   -3.917799    1.542149   -0.166542
   1 F     9.0000    0    18.998   -3.426659    3.607487   -1.580095
   2 F     9.0000    0    18.998   -6.223605    1.867673    0.894729
   3 F     9.0000    0    18.998   -4.065500   -0.478063   -1.714851
   4 C     6.0000    0    12.011   -1.931962    1.171951    1.893014
   5 H     1.0000    0     1.008   -1.909549    2.860346    3.090118
   6 H     1.0000    0     1.008   -2.468757   -0.450378    3.060733
   7 O     8.0000    0    15.999    0.520827    0.698367    0.860279
   8 C     6.0000    0    12.011    2.533990    1.198351    2.578607
   9 F     9.0000    0    18.998    4.701998    0.971848    1.225922
  10 C     6.0000    0    12.011    2.625075   -0.479896    4.946207
  11 F     9.0000    0    18.998    2.353257    3.672739    3.247778
  12 F     9.0000    0    18.998    2.761381   -2.968798    4.328833
  13 F     9.0000    0    18.998    4.692965    0.037133    6.379319
  14 H     1.0000    0     1.008    0.953915   -0.207208    6.129724

--------------------------------
INTERNAL COORDINATES (ANGSTROEM)
--------------------------------
 C      0   0   0     0.000000000000     0.00000000     0.00000000
 F      1   0   0     1.349658443941     0.00000000     0.00000000
 F      1   2   0     1.354218335425   107.47814376     0.00000000
 F      1   2   3     1.349176985054   108.43519245   115.91122303
 C      1   2   3     1.526597578440   111.53279934   239.46944938
 H      5   1   2     1.095311983683   108.40174357    58.74494373
 H      5   1   2     1.095239616933   108.95613347   176.53797829
 O      5   1   2     1.430443212330   111.98365005   296.28653670
 C      8   5   1     1.425389690155   113.69867739   159.55977661
 F      9   8   5     1.357555112436   106.19198551   187.58381554
 C      9   8   5     1.536468477548   115.87081807    64.30862233
 F      9   8   5     1.359795232305   106.99559349   300.88458923
 F     11   9   8     1.358899927073   111.45921627    57.23218708
 F     11   9   8     1.359202242236   111.33846289   176.18338558
 H     11   9   8     1.093214932984   111.43699507   296.53005983

---------------------------
INTERNAL COORDINATES (A.U.)
---------------------------
 C      0   0   0     0.000000000000     0.00000000     0.00000000
 F      1   0   0     2.550484833382     0.00000000     0.00000000
 F      1   2   0     2.559101779487   107.47814376     0.00000000
 F      1   2   3     2.549575007942   108.43519245   115.91122303
 C      1   2   3     2.884851339960   111.53279934   239.46944938
 H      5   1   2     2.069839680363   108.40174357    58.74494373
 H      5   1   2     2.069702927025   108.95613347   176.53797829
 O      5   1   2     2.703145921430   111.98365005   296.28653670
 C      8   5   1     2.693596148508   113.69867739   159.55977661
 F      9   8   5     2.565407374208   106.19198551   187.58381554
 C      9   8   5     2.903504635969   115.87081807    64.30862233
 F      9   8   5     2.569640587269   106.99559349   300.88458923
 F     11   9   8     2.567948705574   111.45921627    57.23218708
 F     11   9   8     2.568519998438   111.33846289   176.18338558
 H     11   9   8     2.065876828854   111.43699507   296.53005983

---------------------
BASIS SET INFORMATION
---------------------
There are 4 groups of distinct atoms

 Group   1 Type C   : 18s5p2d1f contracted to 4s3p2d1f pattern {8811/311/11/1}
 Group   2 Type F   : 18s5p2d1f contracted to 4s3p2d1f pattern {8811/311/11/1}
 Group   3 Type H   : 5s2p1d contracted to 3s2p1d pattern {311/11/1}
 Group   4 Type O   : 18s5p2d1f contracted to 4s3p2d1f pattern {8811/311/11/1}

Atom   0C    basis set group =>   1
Atom   1F    basis set group =>   2
Atom   2F    basis set group =>   2
Atom   3F    basis set group =>   2
Atom   4C    basis set group =>   1
Atom   5H    basis set group =>   3
Atom   6H    basis set group =>   3
Atom   7O    basis set group =>   4
Atom   8C    basis set group =>   1
Atom   9F    basis set group =>   2
Atom  10C    basis set group =>   1
Atom  11F    basis set group =>   2
Atom  12F    basis set group =>   2
Atom  13F    basis set group =>   2
Atom  14H    basis set group =>   3
---------------------------------
AUXILIARY/J BASIS SET INFORMATION
---------------------------------
There are 4 groups of distinct atoms

 Group   1 Type C   : 12s5p4d2f1g contracted to 6s4p3d1f1g pattern {711111/2111/211/2/1}
 Group   2 Type F   : 12s5p4d2f1g contracted to 6s4p3d1f1g pattern {711111/2111/211/2/1}
 Group   3 Type H   : 5s2p1d contracted to 3s1p1d pattern {311/2/1}
 Group   4 Type O   : 12s5p4d2f1g contracted to 6s4p3d1f1g pattern {711111/2111/211/2/1}

Atom   0C    basis set group =>   1
Atom   1F    basis set group =>   2
Atom   2F    basis set group =>   2
Atom   3F    basis set group =>   2
Atom   4C    basis set group =>   1
Atom   5H    basis set group =>   3
Atom   6H    basis set group =>   3
Atom   7O    basis set group =>   4
Atom   8C    basis set group =>   1
Atom   9F    basis set group =>   2
Atom  10C    basis set group =>   1
Atom  11F    basis set group =>   2
Atom  12F    basis set group =>   2
Atom  13F    basis set group =>   2
Atom  14H    basis set group =>   3
------------------------------------------------------------------------------
                             ORCA STARTUP CALCULATIONS
                           -- RI-GTO INTEGRALS CHOSEN --
------------------------------------------------------------------------------
------------------------------------------------------------------------------
                   ___                                                        
                  /   \      - P O W E R E D   B Y -                         
                 /     \                                                     
                 |  |  |   _    _      __       _____    __    __             
                 |  |  |  | |  | |    /  \     |  _  \  |  |  /  |          
                  \  \/   | |  | |   /    \    | | | |  |  | /  /          
                 / \  \   | |__| |  /  /\  \   | |_| |  |  |/  /          
                |  |  |   |  __  | /  /__\  \  |    /   |      \           
                |  |  |   | |  | | |   __   |  |    \   |  |\   \          
                \     /   | |  | | |  |  |  |  | |\  \  |  | \   \       
                 \___/    |_|  |_| |__|  |__|  |_| \__\ |__|  \__/        
                                                                              
                      - O R C A' S   B I G   F R I E N D -                    
                                      &                                       
                       - I N T E G R A L  F E E D E R -                       
                                                                              
 v1 FN, 2020, v2 2021, v3 2022-2024                                           
------------------------------------------------------------------------------


----------------------
SHARK INTEGRAL PACKAGE
----------------------

Number of atoms                             ...     15
Number of basis functions                   ...    474
Number of shells                            ...    210
Maximum angular momentum                    ...      3
Integral batch strategy                     ... SHARK/LIBINT Hybrid
RI-J (if used) integral strategy            ... SPLIT-RIJ (Revised 2003 algorithm where possible)
Printlevel                                  ...      1
Contraction scheme used                     ... PARTIAL GENERAL contraction
Prescreening option                         ... SCHWARTZ
   Thresh                                   ... 2.500e-11
   Tcut                                     ... 2.500e-12
   Tpresel                                  ... 2.500e-12 
Coulomb Range Separation                    ... NOT USED
Exchange Range Separation                   ... NOT USED
Multipole approximations                    ... NOT USED
Finite Nucleus Model                        ... NOT USED
CABS basis                                  ... NOT available
Auxiliary Coulomb fitting basis             ... AVAILABLE
   # of basis functions in Aux-J            ...    621
   # of shells in Aux-J                     ...    195
   Maximum angular momentum in Aux-J        ...      4
Auxiliary J/K fitting basis                 ... NOT available
Auxiliary Correlation fitting basis         ... NOT available
Auxiliary 'external' fitting basis          ... NOT available

Checking pre-screening integrals            ... done (  0.0 sec) Dimension = 210
Save PGC pre-screening integrals            ... done (  0.0 sec) Dimension = 210
Calculate PGC overlap integrals             ... done (  0.1 sec) Dimension = 138
Calculating pre-screening integrals (ORCA)  ... done (  0.2 sec) Dimension = 138
Shell pair information
Shell pair cut-off parameter TPreSel        ...   2.5e-12
Total number of shell pairs                 ...     22155
Shell pairs after pre-screening             ...     13099
Total number of primitive shell pairs       ...     28965
Primitive shell pairs kept                  ...     15859
          la=0 lb=0:   3651 shell pairs
          la=1 lb=0:   3787 shell pairs
          la=1 lb=1:    779 shell pairs
          la=2 lb=0:   2135 shell pairs
          la=2 lb=1:    927 shell pairs
          la=2 lb=2:    288 shell pairs
          la=3 lb=0:    835 shell pairs
          la=3 lb=1:    402 shell pairs
          la=3 lb=2:    239 shell pairs
          la=3 lb=3:     56 shell pairs

Checking whether 4 symmetric matrices of dimension 474 fit in memory
:Max Core in MB      =   4096.00
 MB in use           =     17.46
 MB left             =   4078.54
 MB needed           =      3.44
 Data fit in memory  = YES
Calculating RI/J V-Matrix + Cholesky decomp.... done (  0.0 sec)
Calculating Nuclear repulsion               ... done (  0.0 sec) ENN=    835.658273413262 Eh

Diagonalization of the overlap matrix:
Smallest eigenvalue                        ... 7.755e-04
Time for diagonalization                   ...    0.031 sec
Threshold for overlap eigenvalues          ... 1.000e-07
Number of eigenvalues below threshold      ... 0
Time for construction of square roots      ...    0.014 sec
Total time needed                          ...    0.046 sec

-------------------
DFT GRID GENERATION
-------------------

General Integration Accuracy     IntAcc      ... 4.388
Radial Grid Type                 RadialGrid  ... OptM3 with GC (2021)
Angular Grid (max. ang.)         AngularGrid ... 4 (Lebedev-302)
Angular grid pruning method      GridPruning ... 4 (adaptive)
Weight generation scheme         WeightScheme... mBecke (2022)
Basis function cutoff            BFCut       ... 1.0000e-11
Integration weight cutoff        WCut        ... 1.0000e-14
Partially contracted basis set               ... off
Rotationally invariant grid construction     ... off
Angular grids for H and He will be reduced by one unit

Total number of grid points                  ...    82547
Total number of batches                      ...     1298
Average number of points per batch           ...       63
Average number of grid points per atom       ...     5503

---------------------
SHARK GRID GENERATION
---------------------

General Integration Accuracy     IntAcc      ... 4.388
Radial Grid Type                 RadialGrid  ... OptM3 with GC (2021)
Angular Grid (max. ang.)         AngularGrid ... 4 (Lebedev-302)
Angular grid pruning method      GridPruning ... 4 (adaptive)
Weight generation scheme         WeightScheme... mBecke (2022)
Basis function cutoff            BFCut       ... 1.0000e-11
Integration weight cutoff        WCut        ... 1.0000e-14
Partially contracted basis set               ... off
Rotationally invariant grid construction     ... off
Angular grids for H and He will be reduced by one unit
Steep s-basis detected: some atoms will have their radial
                        grid points doubled.

Total number of grid points                  ...   156446
Total number of batches                      ...     2453
Average number of points per batch           ...       63
Average number of grid points per atom       ...    10430

--------------------
COSX GRID GENERATION
--------------------

GRIDX 1
-------
General Integration Accuracy     IntAcc      ... 3.816
Radial Grid Type                 RadialGrid  ... OptM3 with GC (2021)
Angular Grid (max. ang.)         AngularGrid ... 1 (Lebedev-50)
Angular grid pruning method      GridPruning ... 4 (adaptive)
Weight generation scheme         WeightScheme... mBecke (2022)
Basis function cutoff            BFCut       ... 1.0000e-11
Integration weight cutoff        WCut        ... 1.0000e-14
Partially contracted basis set               ... on
Rotationally invariant grid construction     ... off
Angular grids for H and He will be reduced by one unit

Total number of grid points                  ...    10433
Total number of batches                      ...       89
Average number of points per batch           ...      117
Average number of grid points per atom       ...      696
UseSFitting                                  ... on

GRIDX 2
-------
General Integration Accuracy     IntAcc      ... 4.020
Radial Grid Type                 RadialGrid  ... OptM3 with GC (2021)
Angular Grid (max. ang.)         AngularGrid ... 2 (Lebedev-110)
Angular grid pruning method      GridPruning ... 4 (adaptive)
Weight generation scheme         WeightScheme... mBecke (2022)
Basis function cutoff            BFCut       ... 1.0000e-11
Integration weight cutoff        WCut        ... 1.0000e-14
Partially contracted basis set               ... on
Rotationally invariant grid construction     ... off
Angular grids for H and He will be reduced by one unit

Total number of grid points                  ...    24219
Total number of batches                      ...      196
Average number of points per batch           ...      123
Average number of grid points per atom       ...     1615
UseSFitting                                  ... on

GRIDX 3
-------
General Integration Accuracy     IntAcc      ... 4.338
Radial Grid Type                 RadialGrid  ... OptM3 with GC (2021)
Angular Grid (max. ang.)         AngularGrid ... 3 (Lebedev-194)
Angular grid pruning method      GridPruning ... 4 (adaptive)
Weight generation scheme         WeightScheme... mBecke (2022)
Basis function cutoff            BFCut       ... 1.0000e-11
Integration weight cutoff        WCut        ... 1.0000e-14
Partially contracted basis set               ... on
Rotationally invariant grid construction     ... off
Angular grids for H and He will be reduced by one unit

Total number of grid points                  ...    53556
Total number of batches                      ...      425
Average number of points per batch           ...      126
Average number of grid points per atom       ...     3570
UseSFitting                                  ... on
Grids setup in   5.3 sec
Initializing property integral containers    ... done (  0.0 sec)

SHARK setup successfully completed in   6.0 seconds

Maximum memory used throughout the entire STARTUP-calculation: 79.9 MB
-------------------------------------------------------------------------------
                                 ORCA GUESS
                   Start orbitals & Density for SCF / CASSCF
-------------------------------------------------------------------------------

------------
SCF SETTINGS
------------
Hamiltonian:
 Density Functional     Method          .... DFT(GTOs)
 Exchange Functional    Exchange        .... B88
   X-Alpha parameter    XAlpha          ....  0.666667
   Becke's b parameter  XBeta           ....  0.004200
 Correlation Functional Correlation     .... LYP
 LDA part of GGA corr.  LDAOpt          .... VWN-5
 Gradients option       PostSCFGGA      .... off
 Hybrid DFT is turned on
   Fraction HF Exchange ScalHFX         ....  0.200000
   Scaling of DF-GGA-X  ScalDFX         ....  0.720000
   Scaling of DF-GGA-C  ScalDFC         ....  0.810000
   Scaling of DF-LDA-C  ScalLDAC        ....  1.000000
   Perturbative correction              ....  0.000000
   NL short-range parameter             ....  4.800000
 RI-approximation to the Coulomb term is turned on
   Number of AuxJ basis functions       .... 621
   RIJ-COSX (HFX calculated with COS-X)).... on


General Settings:
 Integral files         IntName         .... TFTFE_C2
 Hartree-Fock type      HFTyp           .... RHF
 Total Charge           Charge          ....    0
 Multiplicity           Mult            ....    1
 Number of Electrons    NEL             ....   98
 Basis Dimension        Dim             ....  402
 Nuclear Repulsion      ENuc            ....    835.6582734133 Eh

Convergence Acceleration:
 AO-DIIS                CNVDIIS         .... on
   Start iteration      DIISMaxIt       ....    12
   Startup error        DIISStart       ....  0.200000
   # of expansion vecs  DIISMaxEq       ....     5
   Bias factor          DIISBfac        ....   1.050
   Max. coefficient     DIISMaxC        ....  10.000
 MO-DIIS                CNVKDIIS        .... off
 Trust-Rad. Augm. Hess. CNVTRAH         .... auto
   Auto Start mean grad. ratio tolernc. ....  1.125000
   Auto Start start iteration           ....    50
   Auto Start num. interpolation iter.  ....    10
   Max. Number of Micro iterations      ....    24
   Max. Number of Macro iterations      .... Maxiter - #DIIS iter
   Number of Davidson start vectors     ....     2
   Converg. threshold    (grad. norm)   ....   1.000e-05
   Grad. Scal. Fac. for Micro threshold ....   0.100
   Minimum threshold for Micro iter.    ....   1.000e-02
   NR start threshold (gradient norm)   ....   1.000e-04
   Initial trust radius                 ....   0.400
   Minimum AH scaling param. (alpha)    ....   1.000
   Maximum AH scaling param. (alpha)    .... 1000.000
   Quad. conv. algorithm                .... NR
   White noise on init. David. guess    .... on
   Maximum white noise                  ....   0.010
   Pseudo random numbers                .... off
   Inactive MOs                         .... canonical
   Orbital update algorithm             .... Taylor
   Preconditioner                       .... Diag
   Full preconditioner red. dimension   ....   250
 SOSCF                 CNVSOSCF           .... on
   Start iteration     SOSCFMaxIt         ....   150
   Startup grad/error  SOSCFStart         ....  0.003300
   Hessian update      SOSCFHessUp        .... L-BFGS
   Autom. constraints  SOSCFAutoConstrain .... off
 Level Shifting         CNVShift        .... on
   Level shift para.    LevelShift      ....    0.2500
   Turn off err/grad.   ShiftErr        ....    0.0010
 Zerner damping         CNVZerner       .... off
 Static damping         CNVDamp         .... on
   Fraction old density DampFac         ....    0.7000
   Max. Damping (<1)    DampMax         ....    0.9800
   Min. Damping (>=0)   DampMin         ....    0.0000
   Turn off err/grad.   DampErr         ....    0.1000

SCF Procedure:
 Maximum # iterations   MaxIter         ....   125
 SCF integral mode      SCFMode         .... Direct
   Integral package                     .... SHARK and LIBINT hybrid scheme
 Reset frequency        DirectResetFreq ....    20
 Integral Threshold     Thresh          ....  2.500e-11 Eh
 Primitive CutOff       TCut            ....  2.500e-12 Eh

Convergence Tolerance:
 Convergence Check Mode ConvCheckMode   .... Total+1el-Energy
 Convergence forced     ConvForced      .... 0
 Energy Change          TolE            ....  1.000e-08 Eh
 1-El. energy change                    ....  1.000e-05 Eh
 Orbital Gradient       TolG            ....  1.000e-05
 Orbital Rotation angle TolX            ....  1.000e-05
 DIIS Error             TolErr          ....  5.000e-07

------------------------------
INITIAL GUESS: MODEL POTENTIAL
------------------------------
Loading Hartree-Fock densities                     ... done
Calculating cut-offs                               ... done
Initializing the effective Hamiltonian             ... done
Setting up the integral package (SHARK)            ... done
Starting the Coulomb interaction                   ... done (   0.5 sec)
Making the grid                                    ... done (   0.3 sec)
Mapping shells                                     ... done
Starting the XC term evaluation                    ... done (   0.5 sec)
  promolecular density results
     # of electrons  =     97.998645437
     EX              =   -100.044089470
     EC              =     -3.639912131
     EX+EC           =   -103.684001602
Transforming the Hamiltonian                       ... done (   0.0 sec)
Diagonalizing the Hamiltonian                      ... done (   0.0 sec)
Back transforming the eigenvectors                 ... done (   0.0 sec)
Now organizing SCF variables                       ... done
                      ------------------
                      INITIAL GUESS DONE (   1.3 sec)
                      ------------------
             **** ENERGY FILE WAS UPDATED (TFTFE_C2.en.tmp) ****
Finished Guess after   1.5 sec
Maximum memory used throughout the entire GUESS-calculation: 40.3 MB

-------------------------------------------------------------------------------------------
                                      ORCA LEAN-SCF
                              memory conserving SCF solver
-------------------------------------------------------------------------------------------

----------------------------------------D-I-I-S--------------------------------------------
Iteration    Energy (Eh)           Delta-E    RMSDP     MaxDP     DIISErr   Damp  Time(sec)
-------------------------------------------------------------------------------------------
               ***  Starting incremental Fock matrix formation  ***
    1    -928.0958073704146045     0.00e+00  7.80e-04  4.00e-02  2.21e-01  0.700  15.8
    2    -928.2101158678703996    -1.14e-01  4.38e-04  2.25e-02  8.55e-02  0.700   7.4
                               ***Turning on AO-DIIS***
    3    -928.2475447403578528    -3.74e-02  1.37e-04  5.39e-03  2.55e-02  0.700   7.0
    4    -928.2730036709704109    -2.55e-02  2.45e-04  6.89e-03  1.23e-02  0.000   6.7
                              *** Initializing SOSCF ***
---------------------------------------S-O-S-C-F--------------------------------------
Iteration    Energy (Eh)           Delta-E    RMSDP     MaxDP     MaxGrad    Time(sec)
--------------------------------------------------------------------------------------
    5    -928.3317568708221188    -5.88e-02  6.45e-05  4.37e-03  2.49e-03     7.0
               *** Restarting incremental Fock matrix formation ***
    6    -928.3318280934308859    -7.12e-05  2.49e-05  7.84e-04  2.94e-04    16.6
    7    -928.3318257184785125     2.37e-06  1.13e-05  4.00e-04  3.83e-04    12.0
    8    -928.3318356873201083    -9.97e-06  2.34e-06  1.09e-04  3.55e-05    11.4
    9    -928.3318357125547209    -2.52e-08  1.33e-06  5.24e-05  2.42e-05     9.4
   10    -928.3318357947330242    -8.22e-08  4.84e-07  1.46e-05  1.01e-05     8.5
   11    -928.3318358129847638    -1.83e-08  2.93e-07  1.05e-05  9.40e-06     7.8
   12    -928.3318357985663170     1.44e-08  5.22e-08  2.14e-06  8.83e-07     7.0
                  *** Gradient check signals convergence ***

               *****************************************************
               *                     SUCCESS                       *
               *           SCF CONVERGED AFTER  12 CYCLES          *
               *****************************************************

Recomputing exchange energy using gridx3       ... done (   27.306 sec)
Old exchange energy                            :    -20.073152404 Eh
New exchange energy                            :    -20.073044060 Eh
Exchange energy change after final integration :      0.000108344 Eh
Total energy after final integration           :   -928.331727449 Eh
             **** ENERGY FILE WAS UPDATED (TFTFE_C2.en.tmp) ****

----------------
TOTAL SCF ENERGY
----------------

Total Energy       :       -928.33172744877288 Eh          -25261.19056 eV

Components:
Nuclear Repulsion  :        835.65827341326190 Eh           22739.41767 eV
Electronic Energy  :      -1763.99010920596515 Eh          -48000.61118 eV
One Electron Energy:      -2949.26012921108986 Eh          -80253.44812 eV
Two Electron Energy:       1185.27002000512471 Eh           32252.83695 eV

Virial components:
Potential Energy   :      -1851.77534262765221 Eh          -50389.36882 eV
Kinetic Energy     :        923.44361517887933 Eh           25128.17826 eV
Virial Ratio       :          2.00529335217608

DFT components:
N(Alpha)           :       48.999971450899 electrons
N(Beta)            :       48.999971450899 electrons
N(Total)           :       97.999942901798 electrons
E(X)               :      -79.975385755547 Eh       
E(C)               :       -4.259194563732 Eh       
E(XC)              :      -84.234580319279 Eh       

---------------
SCF CONVERGENCE
---------------

  Last Energy change         ...   -1.4418e-08  Tolerance :   1.0000e-08
  Last MAX-Density change    ...    2.1394e-06  Tolerance :   1.0000e-07
  Last RMS-Density change    ...    5.2247e-08  Tolerance :   5.0000e-09
  Last DIIS Error            ...    2.4893e-03  Tolerance :   5.0000e-07
  Last Orbital Gradient      ...    8.8263e-07  Tolerance :   1.0000e-05
  Last Orbital Rotation      ...    1.3467e-06  Tolerance :   1.0000e-05


----------------
ORBITAL ENERGIES
----------------

  NO   OCC          E(Eh)            E(eV) 
   0   2.0000     -24.734848      -673.0694 
   1   2.0000     -24.734685      -673.0650 
   2   2.0000     -24.729844      -672.9333 
   3   2.0000     -24.729642      -672.9278 
   4   2.0000     -24.729010      -672.9106 
   5   2.0000     -24.726692      -672.8475 
   6   2.0000     -24.725658      -672.8194 
   7   2.0000     -19.204869      -522.5911 
   8   2.0000     -10.449694      -284.3506 
   9   2.0000     -10.436299      -283.9861 
  10   2.0000     -10.383830      -282.5584 
  11   2.0000     -10.287204      -279.9290 
  12   2.0000      -1.328588       -36.1527 
  13   2.0000      -1.310758       -35.6675 
  14   2.0000      -1.287984       -35.0478 
  15   2.0000      -1.243453       -33.8361 
  16   2.0000      -1.241859       -33.7927 
  17   2.0000      -1.240302       -33.7503 
  18   2.0000      -1.231846       -33.5202 
  19   2.0000      -1.097217       -29.8568 
  20   2.0000      -0.822757       -22.3883 
  21   2.0000      -0.787637       -21.4327 
  22   2.0000      -0.706549       -19.2262 
  23   2.0000      -0.675407       -18.3788 
  24   2.0000      -0.624498       -16.9935 
  25   2.0000      -0.617796       -16.8111 
  26   2.0000      -0.616853       -16.7854 
  27   2.0000      -0.612174       -16.6581 
  28   2.0000      -0.597826       -16.2677 
  29   2.0000      -0.579143       -15.7593 
  30   2.0000      -0.571163       -15.5421 
  31   2.0000      -0.568405       -15.4671 
  32   2.0000      -0.511908       -13.9297 
  33   2.0000      -0.492197       -13.3934 
  34   2.0000      -0.486594       -13.2409 
  35   2.0000      -0.484826       -13.1928 
  36   2.0000      -0.470618       -12.8062 
  37   2.0000      -0.466882       -12.7045 
  38   2.0000      -0.458078       -12.4649 
  39   2.0000      -0.449859       -12.2413 
  40   2.0000      -0.445368       -12.1191 
  41   2.0000      -0.441380       -12.0106 
  42   2.0000      -0.436501       -11.8778 
  43   2.0000      -0.434435       -11.8216 
  44   2.0000      -0.429337       -11.6829 
  45   2.0000      -0.427804       -11.6411 
  46   2.0000      -0.404401       -11.0043 
  47   2.0000      -0.376799       -10.2532 
  48   2.0000      -0.341028        -9.2798 
  49   0.0000       0.011443         0.3114 
  50   0.0000       0.026291         0.7154 
  51   0.0000       0.044448         1.2095 
  52   0.0000       0.056270         1.5312 
  53   0.0000       0.076197         2.0734 
  54   0.0000       0.087335         2.3765 
  55   0.0000       0.132676         3.6103 
  56   0.0000       0.154883         4.2146 
  57   0.0000       0.159983         4.3534 
  58   0.0000       0.166578         4.5328 
  59   0.0000       0.173509         4.7214 
*Only the first 10 virtual orbitals were printed.

                    ********************************
                    * MULLIKEN POPULATION ANALYSIS *
                    ********************************

-----------------------
MULLIKEN ATOMIC CHARGES
-----------------------
   0 C :    0.536084
   1 F :   -0.164332
   2 F :   -0.170835
   3 F :   -0.163657
   4 C :   -0.072498
   5 H :    0.100473
   6 H :    0.092637
   7 O :   -0.271034
   8 C :    0.434310
   9 F :   -0.152071
  10 C :    0.320371
  11 F :   -0.180893
  12 F :   -0.181135
  13 F :   -0.175997
  14 H :    0.048576
Sum of atomic charges:   -0.0000000

--------------------------------
MULLIKEN REDUCED ORBITAL CHARGES
--------------------------------
  0 C s       :     2.915567  s :     2.915567
      pz      :     0.760933  p :     2.174305
      px      :     0.765454
      py      :     0.647918
      dz2     :     0.061336  d :     0.332990
      dxz     :     0.059080
      dyz     :     0.075800
      dx2y2   :     0.065326
      dxy     :     0.071448
      f0      :     0.002774  f :     0.041055
      f+1     :     0.004257
      f-1     :     0.008293
      f+2     :     0.006430
      f-2     :     0.007449
      f+3     :     0.005892
      f-3     :     0.005961

  1 F s       :     3.886057  s :     3.886057
      pz      :     1.761883  p :     5.261678
      px      :     1.884846
      py      :     1.614949
      dz2     :     0.002092  d :     0.015811
      dxz     :     0.001394
      dyz     :     0.006192
      dx2y2   :     0.003567
      dxy     :     0.002567
      f0      :     0.000090  f :     0.000785
      f+1     :     0.000014
      f-1     :     0.000144
      f+2     :     0.000223
      f-2     :     0.000124
      f+3     :     0.000094
      f-3     :     0.000097

  2 F s       :     3.886739  s :     3.886739
      pz      :     1.832969  p :     5.267914
      px      :     1.544176
      py      :     1.890769
      dz2     :     0.001875  d :     0.015417
      dxz     :     0.005145
      dyz     :     0.000628
      dx2y2   :     0.005121
      dxy     :     0.002648
      f0      :     0.000093  f :     0.000765
      f+1     :     0.000115
      f-1     :     0.000004
      f+2     :     0.000214
      f-2     :     0.000067
      f+3     :     0.000167
      f-3     :     0.000105

  3 F s       :     3.885670  s :     3.885670
      pz      :     1.735102  p :     5.261377
      px      :     1.894828
      py      :     1.631447
      dz2     :     0.002298  d :     0.015825
      dxz     :     0.001437
      dyz     :     0.006654
      dx2y2   :     0.003462
      dxy     :     0.001974
      f0      :     0.000085  f :     0.000786
      f+1     :     0.000015
      f-1     :     0.000177
      f+2     :     0.000258
      f-2     :     0.000096
      f+3     :     0.000057
      f-3     :     0.000098

  4 C s       :     3.215693  s :     3.215693
      pz      :     0.983380  p :     2.744300
      px      :     0.742819
      py      :     1.018101
      dz2     :     0.009219  d :     0.102641
      dxz     :     0.037920
      dyz     :     0.008280
      dx2y2   :     0.022307
      dxy     :     0.024916
      f0      :     0.000452  f :     0.009864
      f+1     :     0.002458
      f-1     :     0.000206
      f+2     :     0.002418
      f-2     :     0.001152
      f+3     :     0.001465
      f-3     :     0.001713

  5 H s       :     0.864756  s :     0.864756
      pz      :     0.013449  p :     0.032095
      px      :     0.009151
      py      :     0.009496
      dz2     :     0.000616  d :     0.002677
      dxz     :     0.000393
      dyz     :     0.000751
      dx2y2   :     0.000399
      dxy     :     0.000518

  6 H s       :     0.875213  s :     0.875213
      pz      :     0.012830  p :     0.029430
      px      :     0.007217
      py      :     0.009383
      dz2     :     0.000617  d :     0.002720
      dxz     :     0.000351
      dyz     :     0.000763
      dx2y2   :     0.000435
      dxy     :     0.000554

  7 O s       :     3.746626  s :     3.746626
      pz      :     1.530225  p :     4.486824
      px      :     1.158725
      py      :     1.797875
      dz2     :     0.005281  d :     0.035466
      dxz     :     0.015477
      dyz     :     0.004003
      dx2y2   :     0.005214
      dxy     :     0.005491
      f0      :     0.000124  f :     0.002118
      f+1     :     0.000367
      f-1     :     0.000057
      f+2     :     0.000507
      f-2     :     0.000286
      f+3     :     0.000450
      f-3     :     0.000327

  8 C s       :     3.009222  s :     3.009222
      pz      :     0.811635  p :     2.202217
      px      :     0.670175
      py      :     0.720407
      dz2     :     0.060050  d :     0.319399
      dxz     :     0.061060
      dyz     :     0.063916
      dx2y2   :     0.061873
      dxy     :     0.072500
      f0      :     0.002325  f :     0.034853
      f+1     :     0.006421
      f-1     :     0.003543
      f+2     :     0.005875
      f-2     :     0.004893
      f+3     :     0.006323
      f-3     :     0.005472

  9 F s       :     3.888427  s :     3.888427
      pz      :     1.771532  p :     5.247317
      px      :     1.580618
      py      :     1.895167
      dz2     :     0.002135  d :     0.015559
      dxz     :     0.006091
      dyz     :     0.001044
      dx2y2   :     0.004029
      dxy     :     0.002260
      f0      :     0.000091  f :     0.000768
      f+1     :     0.000143
      f-1     :     0.000006
      f+2     :     0.000241
      f-2     :     0.000085
      f+3     :     0.000125
      f-3     :     0.000077

 10 C s       :     3.088833  s :     3.088833
      pz      :     0.868071  p :     2.353364
      px      :     0.805781
      py      :     0.679511
      dz2     :     0.038166  d :     0.211638
      dxz     :     0.030025
      dyz     :     0.052536
      dx2y2   :     0.042684
      dxy     :     0.048227
      f0      :     0.001781  f :     0.025794
      f+1     :     0.003614
      f-1     :     0.003390
      f+2     :     0.004946
      f-2     :     0.002776
      f+3     :     0.005250
      f-3     :     0.004037

 11 F s       :     3.891604  s :     3.891604
      pz      :     1.884301  p :     5.272990
      px      :     1.891336
      py      :     1.497352
      dz2     :     0.002067  d :     0.015552
      dxz     :     0.000352
      dyz     :     0.004113
      dx2y2   :     0.006194
      dxy     :     0.002827
      f0      :     0.000082  f :     0.000748
      f+1     :     0.000007
      f-1     :     0.000127
      f+2     :     0.000155
      f-2     :     0.000031
      f+3     :     0.000120
      f-3     :     0.000226

 12 F s       :     3.889003  s :     3.889003
      pz      :     1.886867  p :     5.276005
      px      :     1.899191
      py      :     1.489947
      dz2     :     0.002057  d :     0.015394
      dxz     :     0.000328
      dyz     :     0.003964
      dx2y2   :     0.006178
      dxy     :     0.002867
      f0      :     0.000075  f :     0.000733
      f+1     :     0.000005
      f-1     :     0.000130
      f+2     :     0.000143
      f-2     :     0.000025
      f+3     :     0.000115
      f-3     :     0.000239

 13 F s       :     3.887662  s :     3.887662
      pz      :     1.769196  p :     5.272155
      px      :     1.619558
      py      :     1.883401
      dz2     :     0.002288  d :     0.015446
      dxz     :     0.006018
      dyz     :     0.001248
      dx2y2   :     0.003494
      dxy     :     0.002398
      f0      :     0.000081  f :     0.000734
      f+1     :     0.000155
      f-1     :     0.000012
      f+2     :     0.000203
      f-2     :     0.000115
      f+3     :     0.000086
      f-3     :     0.000081

 14 H s       :     0.918481  s :     0.918481
      pz      :     0.013853  p :     0.030399
      px      :     0.009948
      py      :     0.006598
      dz2     :     0.000556  d :     0.002543
      dxz     :     0.000748
      dyz     :     0.000302
      dx2y2   :     0.000438
      dxy     :     0.000500



                     *******************************
                     * LOEWDIN POPULATION ANALYSIS *
                     *******************************

----------------------
LOEWDIN ATOMIC CHARGES
----------------------
   0 C :   -0.742324
   1 F :    0.245984
   2 F :    0.238729
   3 F :    0.246670
   4 C :   -0.081128
   5 H :   -0.026448
   6 H :   -0.025650
   7 O :    0.314496
   8 C :   -0.668868
   9 F :    0.249830
  10 C :   -0.415450
  11 F :    0.237687
  12 F :    0.232685
  13 F :    0.234689
  14 H :   -0.040900

-------------------------------
LOEWDIN REDUCED ORBITAL CHARGES
-------------------------------
  0 C s       :     2.770125  s :     2.770125
      pz      :     0.874051  p :     2.544219
      px      :     0.874723
      py      :     0.795445
      dz2     :     0.177824  d :     1.172808
      dxz     :     0.246028
      dyz     :     0.282906
      dx2y2   :     0.265846
      dxy     :     0.200203
      f0      :     0.025841  f :     0.255173
      f+1     :     0.025140
      f-1     :     0.047609
      f+2     :     0.039998
      f-2     :     0.040271
      f+3     :     0.038285
      f-3     :     0.038029

  1 F s       :     3.588684  s :     3.588684
      pz      :     1.716943  p :     5.135387
      px      :     1.804670
      py      :     1.613775
      dz2     :     0.003372  d :     0.028506
      dxz     :     0.002534
      dyz     :     0.011469
      dx2y2   :     0.006538
      dxy     :     0.004592
      f0      :     0.000136  f :     0.001439
      f+1     :     0.000027
      f-1     :     0.000316
      f+2     :     0.000354
      f-2     :     0.000246
      f+3     :     0.000174
      f-3     :     0.000186

  2 F s       :     3.591064  s :     3.591064
      pz      :     1.770223  p :     5.140811
      px      :     1.558648
      py      :     1.811940
      dz2     :     0.003687  d :     0.027994
      dxz     :     0.009564
      dyz     :     0.001339
      dx2y2   :     0.009227
      dxy     :     0.004177
      f0      :     0.000144  f :     0.001401
      f+1     :     0.000268
      f-1     :     0.000009
      f+2     :     0.000339
      f-2     :     0.000157
      f+3     :     0.000282
      f-3     :     0.000202

  3 F s       :     3.588466  s :     3.588466
      pz      :     1.697794  p :     5.134909
      px      :     1.810209
      py      :     1.626906
      dz2     :     0.003775  d :     0.028514
      dxz     :     0.002612
      dyz     :     0.012259
      dx2y2   :     0.006373
      dxy     :     0.003496
      f0      :     0.000134  f :     0.001441
      f+1     :     0.000037
      f-1     :     0.000358
      f+2     :     0.000388
      f-2     :     0.000225
      f+3     :     0.000125
      f-3     :     0.000173

  4 C s       :     2.704248  s :     2.704248
      pz      :     0.961863  p :     2.791032
      px      :     0.803395
      py      :     1.025775
      dz2     :     0.044906  d :     0.515053
      dxz     :     0.154316
      dyz     :     0.103778
      dx2y2   :     0.116123
      dxy     :     0.095930
      f0      :     0.008197  f :     0.070794
      f+1     :     0.014453
      f-1     :     0.003038
      f+2     :     0.012221
      f-2     :     0.007568
      f+3     :     0.011588
      f-3     :     0.013727

  5 H s       :     0.839850  s :     0.839850
      pz      :     0.054624  p :     0.157029
      px      :     0.031742
      py      :     0.070663
      dz2     :     0.006279  d :     0.029570
      dxz     :     0.003019
      dyz     :     0.009150
      dx2y2   :     0.006212
      dxy     :     0.004909

  6 H s       :     0.843343  s :     0.843343
      pz      :     0.053499  p :     0.153056
      px      :     0.034560
      py      :     0.064998
      dz2     :     0.006109  d :     0.029251
      dxz     :     0.003444
      dyz     :     0.008535
      dx2y2   :     0.005807
      dxy     :     0.005355

  7 O s       :     3.270388  s :     3.270388
      pz      :     1.479275  p :     4.318363
      px      :     1.181072
      py      :     1.658016
      dz2     :     0.011813  d :     0.091166
      dxz     :     0.036326
      dyz     :     0.006702
      dx2y2   :     0.019706
      dxy     :     0.016618
      f0      :     0.000436  f :     0.005588
      f+1     :     0.001452
      f-1     :     0.000118
      f+2     :     0.001043
      f-2     :     0.000976
      f+3     :     0.000808
      f-3     :     0.000755

  8 C s       :     2.776841  s :     2.776841
      pz      :     0.927022  p :     2.568182
      px      :     0.798383
      py      :     0.842776
      dz2     :     0.181570  d :     1.104322
      dxz     :     0.245082
      dyz     :     0.232026
      dx2y2   :     0.253144
      dxy     :     0.192500
      f0      :     0.020602  f :     0.219523
      f+1     :     0.039251
      f-1     :     0.021187
      f+2     :     0.035264
      f-2     :     0.028798
      f+3     :     0.037232
      f-3     :     0.037190

  9 F s       :     3.591241  s :     3.591241
      pz      :     1.724227  p :     5.129297
      px      :     1.590701
      py      :     1.814370
      dz2     :     0.003679  d :     0.028221
      dxz     :     0.011621
      dyz     :     0.001705
      dx2y2   :     0.007332
      dxy     :     0.003885
      f0      :     0.000136  f :     0.001411
      f+1     :     0.000337
      f-1     :     0.000009
      f+2     :     0.000372
      f-2     :     0.000183
      f+3     :     0.000214
      f-3     :     0.000158

 10 C s       :     2.754930  s :     2.754930
      pz      :     0.946132  p :     2.612533
      px      :     0.874776
      py      :     0.791625
      dz2     :     0.132211  d :     0.878218
      dxz     :     0.174463
      dyz     :     0.199419
      dx2y2   :     0.222237
      dxy     :     0.149889
      f0      :     0.016904  f :     0.169769
      f+1     :     0.022550
      f-1     :     0.022287
      f+2     :     0.028757
      f-2     :     0.018036
      f+3     :     0.032297
      f-3     :     0.028937

 11 F s       :     3.590534  s :     3.590534
      pz      :     1.807363  p :     5.141540
      px      :     1.806903
      py      :     1.527274
      dz2     :     0.003931  d :     0.028839
      dxz     :     0.000771
      dyz     :     0.007989
      dx2y2   :     0.011364
      dxy     :     0.004784
      f0      :     0.000152  f :     0.001401
      f+1     :     0.000009
      f-1     :     0.000243
      f+2     :     0.000289
      f-2     :     0.000083
      f+3     :     0.000262
      f-3     :     0.000363

 12 F s       :     3.591083  s :     3.591083
      pz      :     1.810999  p :     5.146519
      px      :     1.819533
      py      :     1.515988
      dz2     :     0.003688  d :     0.028345
      dxz     :     0.000655
      dyz     :     0.007908
      dx2y2   :     0.010514
      dxy     :     0.005581
      f0      :     0.000143  f :     0.001367
      f+1     :     0.000008
      f-1     :     0.000236
      f+2     :     0.000269
      f-2     :     0.000079
      f+3     :     0.000278
      f-3     :     0.000353

 13 F s       :     3.591025  s :     3.591025
      pz      :     1.723384  p :     5.144579
      px      :     1.616167
      py      :     1.805028
      dz2     :     0.005028  d :     0.028338
      dxz     :     0.010637
      dyz     :     0.002201
      dx2y2   :     0.006431
      dxy     :     0.004041
      f0      :     0.000127  f :     0.001370
      f+1     :     0.000384
      f-1     :     0.000026
      f+2     :     0.000301
      f-2     :     0.000214
      f+3     :     0.000179
      f-3     :     0.000139

 14 H s       :     0.866638  s :     0.866638
      pz      :     0.051567  p :     0.145839
      px      :     0.067354
      py      :     0.026918
      dz2     :     0.004983  d :     0.028423
      dxz     :     0.009487
      dyz     :     0.002791
      dx2y2   :     0.006269
      dxy     :     0.004893



                      *****************************
                      * MAYER POPULATION ANALYSIS *
                      *****************************

  NA   - Mulliken gross atomic population
  ZA   - Total nuclear charge
  QA   - Mulliken gross atomic charge
  VA   - Mayer's total valence
  BVA  - Mayer's bonded valence
  FA   - Mayer's free valence

  ATOM       NA         ZA         QA         VA         BVA        FA
  0 C      5.4639     6.0000     0.5361     4.5724     4.5724    -0.0000
  1 F      9.1643     9.0000    -0.1643     1.2208     1.2208    -0.0000
  2 F      9.1708     9.0000    -0.1708     1.2070     1.2070    -0.0000
  3 F      9.1637     9.0000    -0.1637     1.2203     1.2203    -0.0000
  4 C      6.0725     6.0000    -0.0725     3.8968     3.8968    -0.0000
  5 H      0.8995     1.0000     0.1005     1.0023     1.0023     0.0000
  6 H      0.9074     1.0000     0.0926     0.9869     0.9869     0.0000
  7 O      8.2710     8.0000    -0.2710     2.1564     2.1564    -0.0000
  8 C      5.5657     6.0000     0.4343     4.4028     4.4028    -0.0000
  9 F      9.1521     9.0000    -0.1521     1.2340     1.2340     0.0000
 10 C      5.6796     6.0000     0.3204     4.2109     4.2109     0.0000
 11 F      9.1809     9.0000    -0.1809     1.1815     1.1815    -0.0000
 12 F      9.1811     9.0000    -0.1811     1.1763     1.1763    -0.0000
 13 F      9.1760     9.0000    -0.1760     1.1908     1.1908     0.0000
 14 H      0.9514     1.0000     0.0486     0.9893     0.9893    -0.0000

  Mayer bond orders larger than 0.100000
B(  0-C ,  1-F ) :   1.1887 B(  0-C ,  2-F ) :   1.1602 B(  0-C ,  3-F ) :   1.1899 
B(  0-C ,  4-C ) :   0.9786 B(  4-C ,  5-H ) :   0.9311 B(  4-C ,  6-H ) :   0.9356 
B(  4-C ,  7-O ) :   0.9719 B(  7-O ,  8-C ) :   1.1169 B(  8-C ,  9-F ) :   1.1979 
B(  8-C , 10-C ) :   0.9154 B(  8-C , 11-F ) :   1.1069 B( 10-C , 12-F ) :   1.1321 
B( 10-C , 13-F ) :   1.1416 B( 10-C , 14-H ) :   0.9576 

-------
TIMINGS
-------

Total SCF time: 0 days 0 hours 2 min 29 sec 

Total time                  ....     149.127 sec
Sum of individual times     ....     144.026 sec  ( 96.6%)

SCF preparation             ....       0.155 sec  (  0.1%)
Fock matrix formation       ....     143.129 sec  ( 96.0%)
  Startup                   ....       0.011 sec  (  0.0% of F)
  Split-RI-J                ....       9.585 sec  (  6.7% of F)
  Chain of spheres X        ....     122.036 sec  ( 85.3% of F)
  XC integration            ....      16.382 sec  ( 11.4% of F)
    XC Preparation          ....       0.000 sec  (  0.0% of XC)
    Basis function eval.    ....       5.297 sec  ( 32.3% of XC)
    Density eval.           ....       4.644 sec  ( 28.3% of XC)
    XC-Functional eval.     ....       0.420 sec  (  2.6% of XC)
    XC-Potential eval.      ....       5.662 sec  ( 34.6% of XC)
Diagonalization             ....       0.000 sec  (  0.0%)
Density matrix formation    ....       0.063 sec  (  0.0%)
Total Energy calculation    ....       0.011 sec  (  0.0%)
Population analysis         ....       0.032 sec  (  0.0%)
Orbital Transformation      ....       0.086 sec  (  0.1%)
Orbital Orthonormalization  ....       0.000 sec  (  0.0%)
DIIS solution               ....       0.311 sec  (  0.2%)
SOSCF solution              ....       0.239 sec  (  0.2%)
Finished LeanSCF after 149.1 sec

Maximum memory used throughout the entire LEANSCF-calculation: 58.8 MB

------------------------------------------------------------------------------
                         ORCA PROPERTY INTEGRAL CALCULATIONS
------------------------------------------------------------------------------

GBWName                                   ... TFTFE_C2.gbw
Number of atoms                           ...     15
Number of basis functions                 ...    474
Max core memory                           ...   4096 MB

Dipole integrals                          ... YES
Quadrupole integrals                      ...  NO
Linear momentum integrals                 ...  NO
Angular momentum integrals                ...  NO
Higher moments length integrals           ...  NO
Higher moments velocity integrals         ...  NO
Kinetic energy integrals                  ...  NO
GIAO right hand sides                     ...  NO
GIAO dipole derivative integrals          ...  NO
SOC integrals                             ...  NO
EPR diamagnetic integrals (GIAO)          ...  NO
EPR gauge integrals                       ...  NO
Field gradient integrals                  ...  NO (   0 nuclei)
Spin-dipole/Fermi contact integrals       ...  NO (   0 nuclei)
Contact density integrals                 ...  NO (   0 nuclei)
Nucleus-orbit integrals                   ...  NO (   0 nuclei)
Geometric perturbations                   ...  NO (  15 nuclei)

Choice of electric origin   ... Center of mass
Position of electric origin ... (  0.0583,  0.9103,  1.8999) 
Choice of magnetic origin   ... GIAO
Position of magnetic origin ... (  0.0000,  0.0000,  0.0000) 

Calculating integrals                     ... Electric Dipole (Length)     done (  0.0 sec)

Property integrals calculated in   0.0 sec

Maximum memory used throughout the entire PROPINT-calculation: 41.1 MB

-------------------------   --------------------
FINAL SINGLE POINT ENERGY      -928.331727448773
-------------------------   --------------------

------------------------------------------------------------------------------
                         ORCA SCF GRADIENT CALCULATION
------------------------------------------------------------------------------

Nuc. rep. gradient        (SHARK) ... done (  0.0 sec)
HCore & Overlap gradient  (SHARK) ... done (  0.6 sec)
Split-RIJ-J gradient      (SHARK) ... done (  4.7 sec)
done ( 65.9 sec)
XC gradient                       ... done (  8.8 sec)

------------------
CARTESIAN GRADIENT
------------------

   1   C   :   -0.002931122    0.000099342    0.007430379
   2   F   :    0.001178355    0.007767931   -0.003307377
   3   F   :   -0.009006547    0.001414837   -0.000160729
   4   F   :   -0.001198661   -0.007218568   -0.003928151
   5   C   :   -0.001516126    0.004126377   -0.012881477
   6   H   :    0.002606358    0.000995862    0.004803840
   7   H   :    0.005996435   -0.001749933    0.003334851
   8   O   :   -0.016586683   -0.000258393   -0.017990221
   9   C   :    0.003829953   -0.010123163    0.042683799
  10   F   :    0.015216103    0.005187351   -0.008885306
  11   C   :   -0.000320895    0.010264994   -0.015500368
  12   F   :   -0.003221639    0.004067173   -0.011627872
  13   F   :    0.002777135   -0.006385055    0.007149934
  14   F   :    0.003310490   -0.006134934    0.007212584
  15   H   :   -0.000133157   -0.002053819    0.001666113

Difference to translation invariance:
           :    0.0000000001    0.0000000000   -0.0000000001

Difference to rotation invariance:
           :    0.0000908003   -0.0001183188    0.0002396850

Norm of the Cartesian gradient     ...    0.0643834611
RMS gradient                       ...    0.0095977197
MAX gradient                       ...    0.0426837992

-------
TIMINGS
-------

Total SCF gradient time     ....       79.912 sec

Densities                   ....       0.002 sec  (  0.0%)
One electron gradient       ....       0.601 sec  (  0.8%)
RI-J Coulomb gradient       ....       4.668 sec  (  5.8%)
COSX gradient               ....      65.851 sec  ( 82.4%)
XC gradient                 ....       8.790 sec  ( 11.0%)

Maximum memory used throughout the entire SCFGRAD-calculation: 72.5 MB
------------------------------------------------------------------------------
                         ORCA GEOMETRY RELAXATION STEP
------------------------------------------------------------------------------

Reading the OPT-File                    .... done
Getting information on internals        .... done
Copying old internal coords+grads       .... done
Making the new internal coordinates     .... (2022 redundants) done
Validating the new internal coordinates .... (2022 redundants) done
Calculating the B-matrix                .... done
Calculating the G,G- and P matrices     .... done
Transforming gradient to internals      .... done
Projecting the internal gradient        .... done
Number of atoms                         ....  15
Number of internal coordinates          ....  57
Current Energy                          ....  -928.331727449 Eh
Current gradient norm                   ....     0.064383461 Eh/bohr
Maximum allowed component of the step   ....  0.300
Current trust radius                    ....  0.300
Evaluating the initial hessian          ....  (Almloef) done
Projecting the Hessian                  .... done
Forming the augmented Hessian           .... done
Diagonalizing the augmented Hessian     .... done
Last element of RFO vector              ....  0.986118954
Lowest eigenvalues of augmented Hessian:
 -0.008973110  0.010681276  0.011411142  0.018363965  0.019096312
Length of the computed step             ....  0.168377637
The final length of the internal step   ....  0.168377637
Converting the step to Cartesian space:
 Initial RMS(Int)=    0.0223021629
Transforming coordinates:
 Iter   0:  RMS(Cart)=    0.0697679491 RMS(Int)=    0.0220341061
 Iter   5:  RMS(Cart)=    0.0000000249 RMS(Int)=    0.0000000199
done
Storing new coordinates                 .... done

                                .--------------------.
          ----------------------|Geometry convergence|-------------------------
          Item                value                   Tolerance       Converged
          ---------------------------------------------------------------------
          RMS gradient        0.0078353967            0.0001000000      NO
          MAX gradient        0.0295486034            0.0003000000      NO
          RMS step            0.0223021629            0.0020000000      NO
          MAX step            0.0590560354            0.0040000000      NO
          -------------------------------------------------------------------------
          ........................................................
          Max(Bonds)      0.0313      Max(Angles)    3.23
          Max(Dihed)        2.85      Max(Improp)    0.00
          ---------------------------------------------------------------------

The optimization has not yet converged - more geometry cycles are needed


    ---------------------------------------------------------------------------
                         Redundant Internal Coordinates
                            (Angstroem and degrees)

        Definition                    Value    dE/dq     Step     New-Value
    ----------------------------------------------------------------------------
     1. B(F   1,C   0)                1.3497  0.008351 -0.0072    1.3424   
     2. B(F   2,C   0)                1.3542  0.008230 -0.0072    1.3470   
     3. B(F   3,C   0)                1.3492  0.008172 -0.0071    1.3421   
     4. B(C   4,C   0)                1.5266  0.008470 -0.0116    1.5150   
     5. B(H   5,C   4)                1.0953  0.003621 -0.0053    1.0900   
     6. B(H   6,C   4)                1.0952  0.001696 -0.0025    1.0928   
     7. B(O   7,C   4)                1.4304  0.003583 -0.0039    1.4266   
     8. B(C   8,O   7)                1.4254  0.029549 -0.0313    1.3941   
     9. B(F   9,C   8)                1.3576  0.017089 -0.0152    1.3424   
    10. B(C  10,C   8)                1.5365  0.003100 -0.0044    1.5321   
    11. B(F  11,C   8)                1.3598  0.001109 -0.0010    1.3588   
    12. B(F  12,C  10)                1.3589  0.004617 -0.0041    1.3548   
    13. B(F  13,C  10)                1.3592  0.005454 -0.0049    1.3543   
    14. B(H  14,C  10)                1.0932  0.000792 -0.0011    1.0921   
    15. A(F   2,C   0,F   3)          107.48 -0.002867    0.37    107.86   
    16. A(F   1,C   0,F   3)          108.44  0.001776   -0.23    108.21   
    17. A(F   3,C   0,C   4)          111.82 -0.001407    0.20    112.02   
[...]
     25      -0.037101  -0.010166   0.030096   0.078717   0.009496  -0.006976
     26       0.336126   0.044069  -0.014858  -0.079749  -0.003415  -0.006645
     27       0.079297   0.006563  -0.003581  -0.001628  -0.007304   0.001506
     28      -0.004674   0.000454  -0.001902  -0.006426   0.000349   0.000308
     29      -0.071952  -0.006864   0.003058   0.010284   0.004563  -0.000336
     30      -0.017333  -0.006556  -0.052858   0.069900  -0.010086   0.002499
     31       0.052431  -0.005573  -0.103170  -0.119513  -0.007935   0.003232
     32      -0.056476  -0.004148  -0.019514   0.150938   0.002335   0.004073
     33       0.006977   0.001103  -0.000745   0.004340  -0.002807   0.000669
     34       0.013811   0.006208  -0.000851  -0.014942  -0.005314   0.002513
     35      -0.017188  -0.000373  -0.000987   0.000673  -0.002482   0.000907
     36       0.006149   0.002037   0.019395  -0.000260   0.001345  -0.000466
     37      -0.034748  -0.001663  -0.000270   0.016399   0.000850  -0.000724
     38      -0.011932  -0.002271  -0.014591  -0.014176  -0.000568  -0.000538
     39       0.029646   0.004293  -0.017091   0.003054   0.000074   0.001471
     40      -0.000522   0.001023   0.010734   0.005724   0.001279  -0.000487
     41       0.006300   0.000063   0.009972  -0.024165  -0.001444  -0.000052
     42      -0.174122  -0.024608   0.523506  -0.507968   0.008855  -0.027434
     43       0.450733   0.104765   0.768336   0.493728   0.022664  -0.004566
     44      -0.356814  -0.060120   0.340338  -0.658443   0.016496  -0.025220
                 42         43         44    
      0       0.001625   0.000063   0.000288
      1       0.000687   0.000013   0.003072
      2      -0.000141  -0.000175   0.000154
      3      -0.000026   0.000011  -0.000001
      4      -0.000271  -0.000074  -0.000492
      5       0.000307   0.000107   0.000229
      6      -0.000516  -0.000071   0.000016
      7      -0.000011   0.000006  -0.000282
      8       0.000161   0.000034  -0.000030
      9      -0.000003   0.000029  -0.000175
     10       0.000011   0.000058  -0.000524
     11       0.000196   0.000108  -0.000458
     12       0.018091   0.003084   0.010242
     13       0.018923   0.000544   0.093159
     14      -0.060821  -0.009917   0.016404
     15      -0.018228  -0.004335   0.026237
     16       0.451042   0.089419  -0.685518
     17       0.297085   0.058720  -0.478330
     18      -0.232953  -0.033038  -0.148940
     19      -0.669442  -0.094856  -0.431668
     20       0.421824   0.059031   0.286909
     21       0.002342  -0.000062  -0.000113
     22      -0.000567   0.000070  -0.000266
     23       0.000320  -0.000403  -0.000200
     24      -0.001375   0.001049  -0.000096
     25      -0.000314  -0.001720   0.000161
     26      -0.001344  -0.000009   0.000530
     27       0.000251  -0.000451  -0.000070
     28       0.000007  -0.000070   0.000020
     29      -0.000038   0.000534  -0.000011
     30      -0.008911   0.059524   0.001664
     31       0.002594  -0.015681  -0.000265
     32       0.008516  -0.056341  -0.001445
     33      -0.000059  -0.000149   0.000234
     34       0.000180   0.000642  -0.000199
     35       0.000197   0.000165  -0.000160
     36       0.000071  -0.000675  -0.000030
     37       0.000133  -0.000909  -0.000094
     38       0.000073  -0.000089  -0.000017
     39      -0.000153   0.000722   0.000004
     40      -0.000116   0.000441  -0.000012
     41      -0.000010   0.000747   0.000016
     42       0.109856  -0.709890  -0.019249
     43      -0.032180   0.203277   0.005808
     44      -0.099771   0.650091   0.016328


-----------
IR SPECTRUM
-----------

 Mode   freq       eps      Int      T**2         TX        TY        TZ
       cm**-1   L/(mol*cm) km/mol    a.u.
----------------------------------------------------------------------------
  6:     24.92   0.000143    0.72  0.001789  (-0.011755 -0.040574 -0.002187)
  7:     33.48   0.000032    0.16  0.000301  ( 0.016070  0.005933  0.002695)
  8:     67.37   0.000132    0.67  0.000613  (-0.014005  0.003443 -0.020121)
  9:     88.93   0.000452    2.28  0.001585  ( 0.011761 -0.033524 -0.017976)
 10:    148.30   0.000361    1.82  0.000760  ( 0.015528  0.013732 -0.018168)
 11:    182.81   0.000719    3.63  0.001228  (-0.021698 -0.027492  0.000960)
 12:    234.37   0.000517    2.61  0.000689  ( 0.001425  0.014540  0.021803)
 13:    259.07   0.000385    1.94  0.000463  ( 0.016252  0.008501 -0.011268)
 14:    323.76   0.000010    0.05  0.000010  (-0.002607 -0.001656 -0.000333)
 15:    355.46   0.000322    1.62  0.000282  ( 0.002255  0.016106 -0.004215)
 16:    374.90   0.000033    0.17  0.000028  ( 0.004304  0.002517 -0.001701)
 17:    418.97   0.000534    2.70  0.000398  ( 0.018801  0.005046 -0.004364)
 18:    513.09   0.000079    0.40  0.000048  ( 0.002216 -0.000844 -0.006516)
 19:    532.35   0.000225    1.14  0.000132  ( 0.005053  0.010115  0.002045)
 20:    557.43   0.001917    9.69  0.001073  (-0.022774  0.018759 -0.014230)
 21:    578.90   0.000788    3.98  0.000425  ( 0.009138  0.014193 -0.011823)
 22:    594.53   0.003335   16.86  0.001751  (-0.031636  0.008540 -0.026019)
 23:    656.96   0.007388   37.33  0.003509  ( 0.024867 -0.013070  0.052154)
 24:    737.50   0.001639    8.28  0.000694  ( 0.005496 -0.005203  0.025225)
 25:    849.98   0.006992   35.34  0.002567  ( 0.034890  0.012390 -0.034589)
 26:    859.91   0.005740   29.01  0.002083  (-0.006784 -0.016093  0.042166)
 27:    982.03   0.008052   40.69  0.002559  (-0.000928 -0.050494  0.002885)
 28:   1084.24   0.012857   64.98  0.003701  (-0.006393 -0.059563  0.010578)
 29:   1099.27   0.025407  128.40  0.007213  (-0.014941  0.077661  0.030952)
 30:   1125.42   0.024337  122.99  0.006748  ( 0.003508 -0.081675 -0.008077)
 31:   1150.22   0.044205  223.39  0.011993  ( 0.056451  0.040465  0.084670)
 32:   1167.88   0.065382  330.41  0.017470  ( 0.129956  0.004163 -0.023761)
 33:   1184.68   0.038798  196.07  0.010220  (-0.060005 -0.074507 -0.032684)
 34:   1209.74   0.086103  435.13  0.022211  ( 0.133301 -0.039178  0.053916)
 35:   1290.54   0.039615  200.20  0.009579  ( 0.042880  0.002188 -0.087953)
 36:   1298.63   0.003773   19.07  0.000907  (-0.029331 -0.006780  0.000575)
 37:   1320.34   0.018034   91.13  0.004262  ( 0.011535  0.064241  0.001499)
 38:   1377.63   0.001999   10.10  0.000453  (-0.010467 -0.016616 -0.008197)
 39:   1426.39   0.000933    4.71  0.000204  (-0.013596 -0.002228  0.003770)
 40:   1445.62   0.004830   24.41  0.001043  ( 0.028914 -0.004307  0.013712)
 41:   1499.08   0.001334    6.74  0.000278  ( 0.007976 -0.002088  0.014482)
 42:   3045.43   0.002144   10.83  0.000220  ( 0.012398  0.005428 -0.006043)
 43:   3070.49   0.006355   32.12  0.000646  ( 0.022274 -0.009245 -0.008017)
 44:   3107.56   0.000812    4.10  0.000082  (-0.000861  0.008928 -0.001039)

* The epsilon (eps) is given for a Dirac delta lineshape.
** The dipole moment derivative (T) already includes vibrational overlap.

The first frequency considered to be a vibration is 6
The total number of vibrations considered is 39


--------------------------
THERMOCHEMISTRY AT 298.15K
--------------------------

Temperature         ...   298.15 K
Pressure            ...     1.00 atm
Total Mass          ...   200.05 AMU
Quasi RRHO          ...     True
Cut-Off Frequency   ...     1.00 cm^-1

Throughout the following assumptions are being made:
  (1) The electronic state is orbitally nondegenerate
  (2) There are no thermally accessible electronically excited states
  (3) Hindered rotations indicated by low frequency modes are not
      treated as such but are treated as vibrations and this may
      cause some error
  (4) All equations used are the standard statistical mechanics
      equations for an ideal gas
  (5) All vibrations are strictly harmonic

freq.      24.92  E(vib)   ...       0.56 
freq.      33.48  E(vib)   ...       0.55 
freq.      67.37  E(vib)   ...       0.50 
freq.      88.93  E(vib)   ...       0.47 
freq.     148.30  E(vib)   ...       0.41 
freq.     182.81  E(vib)   ...       0.37 
freq.     234.37  E(vib)   ...       0.32 
freq.     259.07  E(vib)   ...       0.30 
freq.     323.76  E(vib)   ...       0.25 
freq.     355.46  E(vib)   ...       0.22 
freq.     374.90  E(vib)   ...       0.21 
freq.     418.97  E(vib)   ...       0.18 
freq.     513.09  E(vib)   ...       0.13 
freq.     532.35  E(vib)   ...       0.13 
freq.     557.43  E(vib)   ...       0.12 
freq.     578.90  E(vib)   ...       0.11 
freq.     594.53  E(vib)   ...       0.10 
freq.     656.96  E(vib)   ...       0.08 
freq.     737.50  E(vib)   ...       0.06 
freq.     849.98  E(vib)   ...       0.04 
freq.     859.91  E(vib)   ...       0.04 
freq.     982.03  E(vib)   ...       0.02 
freq.    1084.24  E(vib)   ...       0.02 
freq.    1099.27  E(vib)   ...       0.02 
freq.    1125.42  E(vib)   ...       0.01 
freq.    1150.22  E(vib)   ...       0.01 
freq.    1167.88  E(vib)   ...       0.01 
freq.    1184.68  E(vib)   ...       0.01 
freq.    1209.74  E(vib)   ...       0.01 
freq.    1290.54  E(vib)   ...       0.01 
freq.    1298.63  E(vib)   ...       0.01 
freq.    1320.34  E(vib)   ...       0.01 
freq.    1377.63  E(vib)   ...       0.01 
freq.    1426.39  E(vib)   ...       0.00 
freq.    1445.62  E(vib)   ...       0.00 
freq.    1499.08  E(vib)   ...       0.00 
freq.    3045.43  E(vib)   ...       0.00 
freq.    3070.49  E(vib)   ...       0.00 
freq.    3107.56  E(vib)   ...       0.00 

------------
INNER ENERGY
------------

The inner energy is: U= E(el) + E(ZPE) + E(vib) + E(rot) + E(trans)
    E(el)   - is the total energy from the electronic structure calculation
              = E(kin-el) + E(nuc-el) + E(el-el) + E(nuc-nuc)
    E(ZPE)  - the the zero temperature vibrational energy from the frequency calculation
    E(vib)  - the the finite temperature correction to E(ZPE) due to population
              of excited vibrational states
    E(rot)  - is the rotational thermal energy
    E(trans)- is the translational thermal energy

Summary of contributions to the inner energy U:
Electronic energy                ...   -928.33860569 Eh
Zero point energy                ...      0.08264774 Eh      51.86 kcal/mol
Thermal vibrational correction   ...      0.00844310 Eh       5.30 kcal/mol
Thermal rotational correction    ...      0.00141627 Eh       0.89 kcal/mol
Thermal translational correction ...      0.00141627 Eh       0.89 kcal/mol
-----------------------------------------------------------------------
Total thermal energy                   -928.24468231 Eh


Summary of corrections to the electronic energy:
(perhaps to be used in another calculation)
Total thermal correction                  0.01127564 Eh       7.08 kcal/mol
Non-thermal (ZPE) correction              0.08264774 Eh      51.86 kcal/mol
-----------------------------------------------------------------------
Total correction                          0.09392338 Eh      58.94 kcal/mol


--------
ENTHALPY
--------

The enthalpy is H = U + kB*T
                kB is Boltzmann's constant
Total thermal energy              ...   -928.24468231 Eh 
Thermal Enthalpy correction       ...      0.00094421 Eh       0.59 kcal/mol
-----------------------------------------------------------------------
Total Enthalpy                    ...   -928.24373810 Eh


Note: Only C1 symmetry has been detected, increase convergence thresholds 
      if your molecule has a higher symmetry. Symmetry factor of 1.0 is   
      used for the rotational entropy correction. 
 

Note: Rotational entropy computed according to Herzberg 
Infrared and Raman Spectra, Chapter V,1, Van Nostrand Reinhold, 1945 
Point Group:  C1, Symmetry Number:   1  
Rotational constants in cm-1:     0.059839     0.015506     0.014577 

Vibrational entropy computed according to the QRRHO of S. Grimme
Chem.Eur.J. 2012 18 9955 using a reference frequency of 100.0 cm-1


-------
ENTROPY
-------

The entropy contributions are T*S = T*(S(el)+S(vib)+S(rot)+S(trans))
     S(el)   - electronic entropy
     S(vib)  - vibrational entropy
     S(rot)  - rotational entropy
     S(trans)- translational entropy
The entropies will be listed as multiplied by the temperature to get
units of energy

Electronic entropy                ...      0.00000000 Eh      0.00 kcal/mol
Vibrational entropy               ...      0.01520323 Eh      9.54 kcal/mol
Rotational entropy                ...      0.01480338 Eh      9.29 kcal/mol
Translational entropy             ...      0.01985330 Eh     12.46 kcal/mol
-----------------------------------------------------------------------
Final entropy term                ...      0.04985991 Eh     31.29 kcal/mol

In case the symmetry of your molecule has not been determined correctly
or in case you have a reason to use a different symmetry number we print 
out the resulting rotational entropy values for sn=1,12:

 non-linear molecules -----------------------------------
|  sn= 1 | S(rot)=       0.01480338 Eh      9.29 kcal/mol|
|  sn= 2 | S(rot)=       0.01414892 Eh      8.88 kcal/mol|
|  sn= 3 | S(rot)=       0.01376609 Eh      8.64 kcal/mol|
|  sn= 4 | S(rot)=       0.01349447 Eh      8.47 kcal/mol|
|  sn= 5 | S(rot)=       0.01328378 Eh      8.34 kcal/mol|
|  sn= 6 | S(rot)=       0.01311164 Eh      8.23 kcal/mol|
|  sn= 7 | S(rot)=       0.01296609 Eh      8.14 kcal/mol|
|  sn= 8 | S(rot)=       0.01284001 Eh      8.06 kcal/mol|
|  sn= 9 | S(rot)=       0.01272880 Eh      7.99 kcal/mol|
|  sn=10 | S(rot)=       0.01262932 Eh      7.93 kcal/mol|
|  sn=11 | S(rot)=       0.01253933 Eh      7.87 kcal/mol|
|  sn=12 | S(rot)=       0.01245718 Eh      7.82 kcal/mol|
 linear molecules ---------------------------------------
|  Dinfh | S(rot)=       0.00931809 Eh      5.85 kcal/mol|
|  Cinfv | S(rot)=       0.00997254 Eh      6.26 kcal/mol|
 --------------------------------------------------------


-------------------
GIBBS FREE ENERGY
-------------------

The Gibbs free energy is G = H - T*S

Total enthalpy                    ...   -928.24373810 Eh 
Total entropy correction          ...     -0.04985991 Eh    -31.29 kcal/mol
-----------------------------------------------------------------------
Final Gibbs free energy         ...   -928.29359801 Eh

For completeness - the Gibbs free energy minus the electronic energy
G-E(el)                           ...      0.04500768 Eh     28.24 kcal/mol


Maximum memory used throughout the entire PROP-calculation: 139.5 MB

--------------------------------
SUGGESTED CITATIONS FOR THIS RUN
--------------------------------

Below you find a list of papers that are relevant to this ORCA run
We neither can nor want to force you to cite these papers, but we appreciate if you do
You receive ORCA, which is the product of decades of hard work by many enthusiastic individuals, for free
The only thing we kindly ask in return is that you cite our papers,
We deeply appreciate it, if you show your appreciation for ORCA by not just citing the generic ORCA reference.

Please note that relegating all ORCA citations to the supporting information does *not* help us.
SI sections are not indexed - citations you put there will not count into any citation statistics
But we need these citations in order to attract the funding resources that allow us to do what we are doing

Therefore, if you are a happy ORCA user, please consider citing a few of the papers listed below in the main body of your paper

In addition to the list printed below, the program has created the file TFTFE_C2.bibtex that contains the list in bibtex format
You can import this file easily into all common literature databanks and citation aid programs


List of essential papers. We consider these as the minimum necessary citations

  1. Neese, F.
     Software update: the ORCA program system, version 6.0
     WIRES Comput. Molec. Sci. 2025 15(1), e70019
     doi.org/10.1002/wcms.7019

List of papers to cite with high priority. The work reported in these papers was absolutely
necessary for this run to complete.
Our perspective: the developers of density functionals and basis sets usually get cited in chemistry papers
Good! But without the algorithms to do something with them, the functionals or basis sets would not do anything.
Hence, in our opinion, the algorithm design and method developments papers are equally worthy of getting cited

  1. Neese, F.
     An improvement of the resolution of the identity approximation for the formation of the Coulomb matrix
     J. Comp. Chem. 2003 24(14), 1740-1747
     doi.org/10.1002/jcc.10318
  2. Neese, F.; Wennmohs, F.; Hansen, A.; Becker, U.
     Efficient, approximate and parallel Hartree-Fock and hybrid DFT calculations. A 'chain-of-spheres' algorithm for the Hartree-Fock exchange
     Chem. Phys. 2009 356(1-3), 98-109
     doi.org/10.1016/j.chemphys.2008.10.036
  3. Bykov, D.; Petrenko, T.; Izsak, R.; Kossmann, S.; Becker, U.; Valeev, E.; Neese, F.
     Efficient implementation of the analytic second derivatives of Hartree-Fock and hybrid DFT energies: a detailed analysis of different approximations
     Molec. Phys. 2015 113 , 1961-1977
     doi.org/10.1080/00268976.2015.1025114
  4. Helmich-Paris, B.; de Souza, B.; Neese, F.; Izsák, R.
     An improved chain of spheres for exchange algorithm
     J. Chem. Phys. 2021 155(10), 104109
     doi.org/10.1063/5.0058766
  5. Neese, F.
     The SHARK Integral Generation and Digestion System
     J. Comp. Chem. 2022 44(3), 381
     doi.org/10.1002/jcc.26942

List of suggested additional citations. These are papers that are important in the 'surrounding' of 
of this run, or papers that preceded the highly important papers. If you like your results we are grateful for a citation.

  1. Izsak, R.; Neese, F.
     An overlap fitted chain of spheres exchange method
     J. Chem. Phys. 2011 135 , 144105
     doi.org/10.1063/1.3646921
  2. Izsak, R.; Hansen, A.; Neese, F.
     The resolution of identity and chain of spheres approximations for the LPNO-CCSD singles Fock term
     Molec. Phys. 2012 110 , 2413-2417
     doi.org/10.1080/00268976.2012.687466
  3. Neese, F.
     The ORCA program system
     WIRES Comput. Molec. Sci. 2012 2(1), 73-78
     doi.org/10.1002/wcms.81
  4. Izsak, R.; Neese, F.; Klopper, W.
     Robust fitting techniques in the chain of spheres approximation to the Fock exchange: The role of the complementary space
     J. Chem. Phys. 2013 139 , 
     doi.org/10.1063/1.4819264
  5. Neese, F.
     Software update: the ORCA program system, version 4.0
     WIRES Comput. Molec. Sci. 2018 8(1), 1-6
     doi.org/10.1002/wcms.1327
  6. Neese, F.; Wennmohs, F.; Becker, U.; Riplinger, C.
     The ORCA quantum chemistry program package
     J. Chem. Phys. 2020 152(22), 224108
     doi.org/10.1063/5.0004608
  7. Neese, F.
     Software update: The ORCA program system—Version 5.0
     WIRES Comput. Molec. Sci. 2022 12(1), e1606
     doi.org/10.1002/wcms.1606

List of optional additional citations

  1. Neese, F.
     Approximate second-order SCF convergence for spin unrestricted wavefunctions
     Chem. Phys. Lett. 2000 325(1-3), 93-98
     doi.org/10.1016/s0009-2614(00)00662-x

Timings for individual modules:

Sum of individual times          ...     8679.126 sec (= 144.652 min)
Startup calculation              ...     5394.085 sec (=  89.901 min)  62.2 %
SCF iterations                   ...     1106.285 sec (=  18.438 min)  12.7 %
Property integrals               ...      365.286 sec (=   6.088 min)   4.2 %
SCF Response                     ...      256.360 sec (=   4.273 min)   3.0 %
Property calculations            ...      836.323 sec (=  13.939 min)   9.6 %
SCF Gradient evaluation          ...      720.729 sec (=  12.012 min)   8.3 %
Geometry relaxation              ...        0.060 sec (=   0.001 min)   0.0 %
                             ****ORCA TERMINATED NORMALLY****
TOTAL RUN TIME: 0 days 2 hours 24 minutes 39 seconds 961 msec
