
                                 *****************
                                 * O   R   C   A *
                                 *****************

                                            #,                                       
                                            ###                                      
                                            ####                                     
                                            #####                                    
                                            ######                                   
                                           ########,                                 
                                     ,,################,,,,,                         
                               ,,#################################,,                 
                          ,,##########################################,,             
                       ,#########################################, ''#####,          
                    ,#############################################,,   '####,        
                  ,##################################################,,,,####,       
                ,###########''''           ''''###############################       
              ,#####''   ,,,,##########,,,,          '''####'''          '####       
            ,##' ,,,,###########################,,,                        '##       
           ' ,,###''''                  '''############,,,                           
         ,,##''                                '''############,,,,        ,,,,,,###''
      ,#''                                            '''#######################'''  
     '                                                          ''''####''''         
             ,#######,   #######,   ,#######,      ##                                
            ,#'     '#,  ##    ##  ,#'     '#,    #''#        ,####,    ,#,          
            ##       ##  ##   ,#'  ##            #'  '#       #'       ,# #          
            ##       ##  #######   ##           ,######,      #####,      #          
            '#,     ,#'  ##    ##  '#,     ,#' ,#      #,     #,   #      #          
             '#######'   ##     ##  '#######'  #'      '#     '####' #    #          



                #########################################################
                #                        -***-                          #
                #          Department of theory and spectroscopy        #
                #                                                       #
                #                      Frank Neese                      #
                #                                                       #
                #     Directorship, Architecture, Infrastructure        #
                #                    SHARK, DRIVERS                     #
                #        Core code/Algorithms in most modules           #
                #                                                       #
                #        Max Planck Institute fuer Kohlenforschung      #
                #                Kaiser Wilhelm Platz 1                 #
                #                 D-45470 Muelheim/Ruhr                 #
                #                      Germany                          #
                #                                                       #
                #                  All rights reserved                  #
                #                        -***-                          #
                #########################################################


                         Program Version 6.1.0  -  RELEASE   -
                                (GIT: $679e74b$)
                          ($2025-06-10 18:02:51 +0200$)


 With contributions from (in alphabetic order):
[Max-Planck-Institut fuer Kohlenforschung]                               
  Daniel Aravena         : Magnetic Suceptibility                        
  Michael Atanasov       : Ab Initio Ligand Field Theory (pilot matlab implementation)
  Alexander A. Auer      : GIAO ZORA, VPT2 properties, NMR spectrum      
  Ute Becker             : All parallelization in ORCA, NUMFREQ, NUMCALC 
  Giovanni Bistoni       : ED, misc. LED, open-shell LED, HFLD           
  Dmytro Bykov           : pre 5.0 version of the SCF Hessian            
  Marcos Casanova-Páez   : Triplet and SCS-CIS(D). UHF-(DLPNO)-IP/EA/STEOM-CCSD. UHF-CVS-IP/STEOM-CCSD   
  Vijay G. Chilkuri      : MRCI spin determinant printing, contributions to CSF-ICE 
  Pauline Colinet        : FMM embedding                                 
  Dipayan Datta          : RHF DLPNO-CCSD density                        
  Achintya Kumar Dutta   : EOM-CC, STEOM-CC                              
  Nicolas Foglia         : Exact transition moments, OPA infrastructure, MCD improvements    
  Dmitry Ganyushin       : Spin-Orbit,Spin-Spin,Magnetic field MRCI      
  Miquel Garcia-Rates    : C-PCM and meta-GGA Hessian, CCSD/C-PCM, Gaussian charge scheme 
  Tiago L. C. Gouveia    : GS-ROHF, GS-ROCIS                             
  Yang Guo               : DLPNO-NEVPT2, F12-NEVPT2, CIM, IAO-localization        
  Andreas Hansen         : Spin unrestricted coupled pair/coupled cluster methods 
  Ingolf Harden          : AUTO-CI MPn and infrastructure                
  Benjamin Helmich-Paris : MC-RPA, TRAH-(SCF,CASSCF), AVAS, COSX integrals, SCF dyn. polar., MC-PDFT, srDFT 
  Lee Huntington         : MR-EOM, pCC                                   
  Robert Izsak           : Overlap fitted RIJCOSX, COSX-SCS-MP3, EOM     
  Riya Kayal             : Wick's Theorem for AUTO-CI, AUTO-CI UHF-CCSDT 
  Emily Kempfer          : AUTO-CI RHF CISDT and CCSDT, approximate NEVPT4
  Christian Kollmar      : KDIIS, OOCD, Brueckner-CCSD(T), CCSD density, CASPT2, CASPT2-K, improved NEVPT2 
  Axel Koslowski         : Symmetry handling                             
  Simone Kossmann        : meta-GGA functionals, TD-DFT gradient, OOMP2, (MP2 Hessian; deprecated post 5.0) 
  Lucas Lang             : DCDCAS, Hyperfine gauge corrections, ICE-SOC+SSC
  Marvin Lechner         : AUTO-CI (C++ implementation), FIC-MRCC        
  Spencer Leger          : CASSCF response                               
  Dagmar Lenk            : GEPOL surface, SMD, ORCA-2-JSON               
  Dimitrios Liakos       : Extrapolation schemes; Compound Job, Property file
  Dimitrios Manganas     : Further ROCIS development; embedding schemes. LFT, Crystal Embedding 
  Dimitrios Pantazis     : SARC Basis sets                               
  Anastasios Papadopoulos: AUTO-CI, single reference methods and gradients 
  Taras Petrenko         : pre 6.0 DFT Hessian and TD-DFT gradient,  ECA, NRVS 
  Petra Pikulova         : Analytic Raman intensities                    
  Peter Pinski           : DLPNO-MP2, DLPNO-MP2 Gradient                 
  Shashank Vittal Rao    : ES-AILFT, MagRelax                            
  Christoph Reimann      : Effective Core Potentials                     
  Marius Retegan         : Local ZFS, SOC                                
  Christoph Riplinger    : Optimizer, TS searches, QM/MM, DLPNO-CCSD(T), (RO)-DLPNO pert. Triples 
  Michael Roemelt        : Original ROCIS implementation, recursive CI coupling coefficients
  Masaaki Saitow         : Open-shell DLPNO-CCSD energy and density      
  Barbara Sandhoefer     : DKH picture change effects                    
  Yorick L. A. Schmerwitz: GMF and freeze-and-release deltaSCF, NEB S-IDPP initial path                    
  Kantharuban Sivalingam : CASSCF convergence/infrastructure, NEVPT2, NEVPT3, NEVPT4(SD), FIC-MRCI and CEPA variants
  Bernardo de Souza      : ESD, SOC TD-DFT                               
  Georgi L. Stoychev     : AutoAux, RI-MP2 NMR, DLPNO-MP2 response, X2C  
  Van Anh Tran           : RI-MP2 g-tensors                              
  Willem Van den Heuvel  : Paramagnetic NMR                              
  Zikuan Wang            : NOTCH, Electric field optimization            
  Frank Wennmohs         : Technical directorship and infrastructure     
  Hang Xu                : AUTO-CI-Response properties                   
                                                                         
[FACCTs GmbH]                                                            
  Markus Bursch, Nicolas Foglia, Miquel Garcia-Rates, Ingolf Harden, Hagen Neugebauer, Anastasios Papadopoulos, 
  Christoph Riplinger, Bernardo de Souza, Georgi L. Stoychev                                                    
                                                                 
  APM, various basis sets, CI-OPT, improved COSX, DLPNO-Multilevel,           
  DOCKER, DRACO, updates on ESD, Fragmentator, GOAT, IRC, LR-CPCM, L-BFGS, MBIS, meta-GGA TD-DFT gradient, ML-optimized integration grids, 
  MM, NACMEs, nearIR, NEB, NEB-TS, NL-DFT gradient (VV10), 2- and 3-layer-ONIOM, interface openCOSMO-RS, QMMM,   
  Crystal-QMMM, RESP, rigid body optimization, SF, symmetry and pop. for TD-DFT, various functionals, SOLVATOR                                   
                                                                         
[Other institutions]                                                     
  V. Asgeirsson          : NEB                                           
  Christoph Bannwarth    : sTDA-DFT, sTD-DFT, PBEh-3c, B97-3c, D3        
  Giovanni Bistoni       : ETS/NOCV, ADLD/ADEX, COVALED                  
  Martin Brehm           : Molecular dynamics                            
  Ronald Cardenas        : ETS/NOCV                                      
  Martina Colucci        : COVALED                                       
  Sebastian Ehlert       : rSCAN, r2SCAN, r2SCAN-3c, D4, dhf basis sets  
  Marvin Friede          : D4 for Fr, Ra, Ac-Lr                          
  Lars Goerigk           : TD-DFT with DH, B97 family of functionals     
  Stefan Grimme          : VdW corrections, initial TS optimization, DFT functionals, gCP, sTDA/sTD-DF 
  Waldemar Hujo          : DFT-NL                                        
  H. Jonsson             : NEB                                           
  Holger Kruse           : gCP                                           
  Marcel Mueller         : wB97X-3c, vDZP basis set                      
  Hagen Neugebauer       : wr2SCAN, Native XTB                           
  Gianluca Regni         : ADLD/ADEX                                     
  Tobias Risthaus        : pre 6.0 range-separated hybrid DFT and stability analysis
  Lukas Wittmann         : regularized MP2, r2SCAN double-hybrids, wr2SCAN        
                                                                         
We gratefully acknowledge several colleagues who have allowed us to      
interface, adapt or use parts of their codes:                            
  Ed Valeev, F. Pavosevic, A. Kumar             : LibInt (2-el integral package), F12 methods 
  Garnet Chan, S. Sharma, J. Yang, R. Olivares  : DMRG                   
  Ulf Ekstrom                                   : XCFun DFT Library      
  Mihaly Kallay                                 : mrcc  (arbitrary order and MRCC methods)
  Frank Weinhold                                : gennbo (NPA and NBO analysis)           
  Simon Mueller                                 : openCOSMO-RS                            
  Christopher J. Cramer and Donald G. Truhlar   : smd solvation model                     
  S Lehtola, MJT Oliveira, MAL Marques          : LibXC Library                           
  Liviu Ungur et al                             : ANISO software                          


 Your calculation uses the libint2 library for the computation of 2-el integrals
 For citations please refer to: http://libint.valeyev.net

 Your ORCA version has been built with support for libXC version: 7.0.0
 For citations please refer to: https://libxc.gitlab.io

 This ORCA versions uses:
   CBLAS   interface :  Fast vector & matrix operations
   LAPACKE interface :  Fast linear algebra routines
   SCALAPACK package :  Parallel linear algebra routines
   Shared memory     :  Shared parallel matrices
   BLAS/LAPACK       :  OpenBLAS 0.3.29  USE64BITINT DYNAMIC_ARCH NO_AFFINITY Haswell SINGLE_THREADED
        Core in use  :  Haswell
   Copyright (c) 2011-2014, The OpenBLAS Project


  ***********************************
  * Starting time: Wed Dec 31 12:38:45 2025
  * Host name:     BOOK-611GI2U5BQ
  * Process ID:    204105
  * Working dir.:  /home/a_limbo/IR_lab/TFTFE/B3LYP_cc_pVTZ
  ***********************************

Warning: RI is on but no J-basis has been assigned. Assigning Def2/J (nothing to worry about!)
================================================================================

----- Orbital basis set information -----
Your calculation utilizes the basis: cc-pVTZ 
       H, B-Ne : Obtained from the ccRepo (grant-hill.group.shef.ac.uk/ccrepo) Feb. 2017
                 T. H. Dunning, Jr., J. Chem. Phys. 90, 1007 (1989)
            He : Obtained from the ccRepo (grant-hill.group.shef.ac.uk/ccrepo) Feb. 2017
                 D. E. Woon, T. H. Dunning, Jr., J. Chem. Phys. 100, 2975 (1994)
  Li-Be, Na-Mg : Obtained from the ccRepo (grant-hill.group.shef.ac.uk/ccrepo) Feb. 2017
                 B. P. Prascher, D. E. Woon, K. A. Peterson, T. H. Dunning, Jr., A. K. Wilson, Theor. Chem. Acc. 128, 69 (2011)
         Al-Ar : Obtained from the ccRepo (grant-hill.group.shef.ac.uk/ccrepo) Feb. 2017
                 D. E. Woon, T. H. Dunning, Jr., J. Chem. Phys. 98, 1358 (1993)
            Ca : Obtained from the Peterson Research Group Website (tyr0.chem.wsu.edu/~kipeters) Feb. 2017
                 J. Koput, K. A. Peterson, J. Phys. Chem. 106, 9595 (2002)
         Sc-Zn : Obtained from the ccRepo (grant-hill.group.shef.ac.uk/ccrepo) Feb. 2017
                 N. B. Balabanov, K. A. Peterson, J. Chem. Phys. 123, 064107 (2005)
                 N. B. Balabanov, K. A. Peterson, J. Chem. Phys. 125, 074110 (2006)
         Ga-Kr : Obtained from the ccRepo (grant-hill.group.shef.ac.uk/ccrepo) Feb. 2017
                 A. K. Wilson, D. E. Woon, K. A. Peterson, T. H. Dunning, Jr., J. Chem. Phys. 110, 7667 (1999)
             Y : Obtained from the ccRepo (grant-hill.group.shef.ac.uk/ccrepo) Feb. 2017
                 K. A. Peterson, D. Figgen, M. Dolg, H. Stoll, J. Chem. Phys. 126, 124101 (2007)
        Ag, Au : Obtained from the Peterson Research Group Website (tyr0.chem.wsu.edu/~kipeters) Feb. 2017
                 K. A. Peterson, C. Puzzarini, Theor. Chem. Acc. 114, 283 (2005)

----- AuxJ basis set information -----
Your calculation utilizes the auxiliary basis: def2/J
   H-Rn: F. Weigend, Phys. Chem. Chem. Phys. 8, 1057 (2006).
   Fr-Lr: K. Eichkorn, F. Weigend, O. Treutler, R. Ahlrichs; Theor. Chem. Acc. 97, 119 (1997).

================================================================================
                                        WARNINGS
                       Please study these warnings very carefully!
================================================================================


WARNING: Geometry Optimization
  ===> : Switching off AutoStart
         For restart on a previous wavefunction, please use MOREAD

================================================================================
                                       INPUT FILE
================================================================================
NAME = TFTFE_C1.inp
|  1> # avogadro generated ORCA input file 
|  2> # Basic Mode
|  3> # 
|  4> ! B3LYP cc-pVTZ OPT FREQ 
|  5> 
|  6> * xyz 0 1
|  7>    O       -0.31129       -0.60915       -1.31147
|  8>    C       -1.61667       -0.16061       -0.92357
|  9>    C       -1.58265        0.45830        0.46832
| 10>    F       -1.28536       -0.46081        1.41254
| 11>    F       -2.78320        0.99527        0.78281
| 12>    F       -0.66329        1.44642        0.54271
| 13>    H       -2.29321       -1.02210       -0.93115
| 14>    H       -2.01324        0.58462       -1.62138
| 15>    C       -0.10010       -0.50721       -2.71597
| 16>    F       -0.99439       -1.33288       -3.31556
| 17>    F       -0.39950        0.75865       -3.10101
| 18>    C        1.33424       -0.87704       -3.10275
| 19>    F        2.22912       -0.03572       -2.51506
| 20>    F        1.52747       -0.76194       -4.44382
| 21>    H        1.58000       -1.89924       -2.80229
| 22> *
| 23> 
| 24> 
| 25>                          ****END OF INPUT****
================================================================================

                       *****************************
                       * Geometry Optimization Run *
                       *****************************

Geometry optimization settings:
Update method            Update   .... BFGS
Choice of coordinates    CoordSys .... (2022) Redundant Internals
Initial Hessian          InHess   .... Almloef's Model
Max. no of cycles        MaxIter  .... 50

Convergence Tolerances:
Energy Change            TolE     ....  5.0000e-06 Eh
Max. Gradient            TolMAXG  ....  3.0000e-04 Eh/bohr
RMS Gradient             TolRMSG  ....  1.0000e-04 Eh/bohr
Max. Displacement        TolMAXD  ....  4.0000e-03 bohr
RMS Displacement         TolRMSD  ....  2.0000e-03 bohr
Strict Convergence                .... False

------------------------------------------------------------------------------
                        ORCA OPTIMIZATION COORDINATE SETUP
------------------------------------------------------------------------------

The optimization will be done in redundant internal coordinates (2022)
Making redundant internal coordinates   ...  (2022 redundants) done
Evaluating the initial hessian          ...  (Almloef) done
Evaluating the coordinates              ...  done
Calculating the B-matrix                .... done
Calculating the G-matrix                .... done
The number of degrees of freedom        ....   57

    -----------------------------------------------------------------
                    Redundant Internal Coordinates


    -----------------------------------------------------------------
         Definition                    Initial Value    Approx d2E/dq
    -----------------------------------------------------------------
      1. B(C   1,O   0)                  1.4338         0.476494   
      2. B(C   2,C   1)                  1.5237         0.382366   
      3. B(F   3,C   2)                  1.3508         0.600464   
      4. B(F   4,C   2)                  1.3522         0.597318   
      5. B(F   5,C   2)                  1.3517         0.598474   
      6. B(H   6,C   1)                  1.0954         0.353010   
      7. B(H   7,C   1)                  1.0953         0.353220   
      8. B(C   8,O   0)                  1.4239         0.493994   
      9. B(F   9,C   8)                  1.3568         0.587332   
     10. B(F  10,C   8)                  1.3566         0.587886   
     11. B(C  11,C   8)                  1.5309         0.372320   
     12. B(F  12,C  11)                  1.3616         0.577092   
     13. B(F  13,C  11)                  1.3598         0.580965   
     14. B(H  14,C  11)                  1.0934         0.355604   
     15. A(C   1,O   0,C   8)          112.3021         0.392749   
     16. A(O   0,C   1,H   7)          111.7250         0.334523   
     17. A(C   2,C   1,H   6)          109.8504         0.324499   
     18. A(C   2,C   1,H   7)          108.2836         0.324530   
     19. A(H   6,C   1,H   7)          107.8835         0.289058   
     20. A(O   0,C   1,H   6)          108.3248         0.334490   
     21. A(O   0,C   1,C   2)          110.7257         0.378018   
     22. A(F   4,C   2,F   5)          107.5035         0.419160   
     23. A(C   1,C   2,F   4)          110.7279         0.391487   
     24. A(F   3,C   2,F   5)          108.0130         0.419553   
     25. A(C   1,C   2,F   5)          111.2473         0.391620   
     26. A(C   1,C   2,F   3)          111.5356         0.391847   
     27. A(F   3,C   2,F   4)          107.6389         0.419408   
     28. A(O   0,C   8,F  10)          108.3020         0.405762   
     29. A(O   0,C   8,F   9)          107.1307         0.405694   
     30. A(F  10,C   8,C  11)          111.1303         0.388589   
     31. A(F   9,C   8,C  11)          111.0310         0.388525   
     32. A(O   0,C   8,C  11)          111.7686         0.378636   
     33. A(F   9,C   8,F  10)          107.2741         0.416576   
     34. A(F  13,C  11,H  14)          108.5539         0.344745   
     35. A(F  12,C  11,H  14)          108.1386         0.344358   
     36. A(C   8,C  11,H  14)          111.5306         0.323472   
     37. A(F  12,C  11,F  13)          106.2586         0.414401   
     38. A(C   8,C  11,F  13)          111.2142         0.387787   
     39. A(C   8,C  11,F  12)          110.9436         0.387335   
     40. D(C   2,C   1,O   0,C   8)   -148.0643         0.017906   
     41. D(H   7,C   1,O   0,C   8)    -27.2777         0.017906   
     42. D(H   6,C   1,O   0,C   8)     91.4200         0.017906   
     43. D(F   3,C   2,C   1,H   7)    171.2047         0.011645   
     44. D(F   3,C   2,C   1,H   6)     53.6160         0.011645   
     45. D(F   4,C   2,C   1,O   0)    174.1685         0.011645   
     46. D(F   4,C   2,C   1,H   7)     51.3607         0.011645   
     47. D(F   3,C   2,C   1,O   0)    -65.9875         0.011645   
     48. D(F   4,C   2,C   1,H   6)    -66.2280         0.011645   
     49. D(C  11,C   8,O   0,C   1)    175.2056         0.019278   
     50. D(F  10,C   8,O   0,C   1)     52.4581         0.019278   
     51. D(F   9,C   8,O   0,C   1)    -62.9607         0.019278   
     52. D(F  12,C  11,C   8,F  10)     59.8255         0.011073   
     53. D(F  12,C  11,C   8,F   9)    179.1438         0.011073   
     54. D(F  12,C  11,C   8,O   0)    -61.2956         0.011073   
     55. D(F  13,C  11,C   8,F  10)    -58.2175         0.011073   
     56. D(F  13,C  11,C   8,F   9)     61.1008         0.011073   
     57. D(F  13,C  11,C   8,O   0)   -179.3385         0.011073   
    -----------------------------------------------------------------

Number of atoms                         .... 15
Number of degrees of freedom            .... 57


         *************************************************************
         *                GEOMETRY OPTIMIZATION CYCLE   1            *
         *************************************************************
---------------------------------
CARTESIAN COORDINATES (ANGSTROEM)
---------------------------------
  O     -0.311290   -0.609150   -1.311470
  C     -1.616670   -0.160610   -0.923570
  C     -1.582650    0.458300    0.468320
  F     -1.285360   -0.460810    1.412540
  F     -2.783200    0.995270    0.782810
  F     -0.663290    1.446420    0.542710
  H     -2.293210   -1.022100   -0.931150
  H     -2.013240    0.584620   -1.621380
  C     -0.100100   -0.507210   -2.715970
  F     -0.994390   -1.332880   -3.315560
  F     -0.399500    0.758650   -3.101010
  C      1.334240   -0.877040   -3.102750
  F      2.229120   -0.035720   -2.515060
  F      1.527470   -0.761940   -4.443820
  H      1.580000   -1.899240   -2.802290

----------------------------
CARTESIAN COORDINATES (A.U.)
----------------------------
  NO LB      ZA    FRAG     MASS         X           Y           Z
   0 O     8.0000    0    15.999   -0.588253   -1.151127   -2.478319
   1 C     6.0000    0    12.011   -3.055064   -0.303509   -1.745294
   2 C     6.0000    0    12.011   -2.990775    0.866061    0.884997
   3 F     9.0000    0    18.998   -2.428978   -0.870805    2.669314
   4 F     9.0000    0    18.998   -5.259486    1.880788    1.479297
   5 F     9.0000    0    18.998   -1.253436    2.733338    1.025573
   6 H     1.0000    0     1.008   -4.333539   -1.931489   -1.759618
   7 H     1.0000    0     1.008   -3.804472    1.104772   -3.063964
   8 C     6.0000    0    12.011   -0.189162   -0.958488   -5.132439
   9 F     9.0000    0    18.998   -1.879125   -2.518778   -6.265500
  10 F     9.0000    0    18.998   -0.754946    1.433641   -5.860060
  11 C     6.0000    0    12.011    2.521348   -1.657365   -5.863348
  12 F     9.0000    0    18.998    4.212426   -0.067501   -4.752775
  13 F     9.0000    0    18.998    2.886500   -1.439858   -8.397603
  14 H     1.0000    0     1.008    2.985767   -3.589043   -5.295561

--------------------------------
INTERNAL COORDINATES (ANGSTROEM)
--------------------------------
 O      0   0   0     0.000000000000     0.00000000     0.00000000
 C      1   0   0     1.433761307192     0.00000000     0.00000000
 C      2   1   0     1.523668179296   110.72574513     0.00000000
 F      3   2   1     1.350813067971   111.53555887   294.01251389
 F      3   2   1     1.352242967628   110.72794836   174.16851898
 F      3   2   1     1.351716618267   111.24734447    54.68486949
 H      2   1   3     1.095412638278   108.32477424   239.48422960
 H      2   1   3     1.095250799543   111.72496752   120.78656304
 C      1   2   3     1.423942846360   112.30209621   211.93573830
 F      9   1   2     1.356832237640   107.13069388   297.03926389
 F      9   1   2     1.356575726305   108.30203807    52.45810575
 C      9   1   2     1.530916141694   111.76863254   175.20559202
 F     12   9   1     1.361620025154   110.94356288   298.70440314
 F     12   9   1     1.359799466024   111.21420573   180.66148382
 H     12   9   1     1.093419877815   111.53063991    59.32447593

---------------------------
INTERNAL COORDINATES (A.U.)
---------------------------
 O      0   0   0     0.000000000000     0.00000000     0.00000000
 C      1   0   0     2.709416212005     0.00000000     0.00000000
 C      2   1   0     2.879315577840   110.72574513     0.00000000
 F      3   2   1     2.552666756586   111.53555887   294.01251389
 F      3   2   1     2.555368875338   110.72794836   174.16851898
 F      3   2   1     2.554374219195   111.24734447    54.68486949
 H      2   1   3     2.070029889982   108.32477424   239.48422960
 H      2   1   3     2.069724059095   111.72496752   120.78656304
 C      1   2   3     2.690862009977   112.30209621   211.93573830
 F      9   1   2     2.564041338816   107.13069388   297.03926389
 F      9   1   2     2.563556602642   108.30203807    52.45810575
 C      9   1   2     2.893012241802   111.76863254   175.20559202
 F     12   9   1     2.573088946004   110.94356288   298.70440314
 F     12   9   1     2.569648587838   111.21420573   180.66148382
 H     12   9   1     2.066264118455   111.53063991    59.32447593

---------------------
BASIS SET INFORMATION
---------------------
There are 4 groups of distinct atoms

 Group   1 Type O   : 18s5p2d1f contracted to 4s3p2d1f pattern {8811/311/11/1}
 Group   2 Type C   : 18s5p2d1f contracted to 4s3p2d1f pattern {8811/311/11/1}
 Group   3 Type F   : 18s5p2d1f contracted to 4s3p2d1f pattern {8811/311/11/1}
 Group   4 Type H   : 5s2p1d contracted to 3s2p1d pattern {311/11/1}

Atom   0O    basis set group =>   1
Atom   1C    basis set group =>   2
Atom   2C    basis set group =>   2
Atom   3F    basis set group =>   3
Atom   4F    basis set group =>   3
Atom   5F    basis set group =>   3
Atom   6H    basis set group =>   4
Atom   7H    basis set group =>   4
Atom   8C    basis set group =>   2
Atom   9F    basis set group =>   3
Atom  10F    basis set group =>   3
Atom  11C    basis set group =>   2
Atom  12F    basis set group =>   3
Atom  13F    basis set group =>   3
Atom  14H    basis set group =>   4
---------------------------------
AUXILIARY/J BASIS SET INFORMATION
---------------------------------
There are 4 groups of distinct atoms

 Group   1 Type O   : 12s5p4d2f1g contracted to 6s4p3d1f1g pattern {711111/2111/211/2/1}
 Group   2 Type C   : 12s5p4d2f1g contracted to 6s4p3d1f1g pattern {711111/2111/211/2/1}
 Group   3 Type F   : 12s5p4d2f1g contracted to 6s4p3d1f1g pattern {711111/2111/211/2/1}
 Group   4 Type H   : 5s2p1d contracted to 3s1p1d pattern {311/2/1}

Atom   0O    basis set group =>   1
Atom   1C    basis set group =>   2
Atom   2C    basis set group =>   2
Atom   3F    basis set group =>   3
Atom   4F    basis set group =>   3
Atom   5F    basis set group =>   3
Atom   6H    basis set group =>   4
Atom   7H    basis set group =>   4
Atom   8C    basis set group =>   2
Atom   9F    basis set group =>   3
Atom  10F    basis set group =>   3
Atom  11C    basis set group =>   2
Atom  12F    basis set group =>   3
Atom  13F    basis set group =>   3
Atom  14H    basis set group =>   4
------------------------------------------------------------------------------
                             ORCA STARTUP CALCULATIONS
                           -- RI-GTO INTEGRALS CHOSEN --
------------------------------------------------------------------------------
------------------------------------------------------------------------------
                   ___                                                        
                  /   \      - P O W E R E D   B Y -                         
                 /     \                                                     
                 |  |  |   _    _      __       _____    __    __             
                 |  |  |  | |  | |    /  \     |  _  \  |  |  /  |          
                  \  \/   | |  | |   /    \    | | | |  |  | /  /          
                 / \  \   | |__| |  /  /\  \   | |_| |  |  |/  /          
                |  |  |   |  __  | /  /__\  \  |    /   |      \           
                |  |  |   | |  | | |   __   |  |    \   |  |\   \          
                \     /   | |  | | |  |  |  |  | |\  \  |  | \   \       
                 \___/    |_|  |_| |__|  |__|  |_| \__\ |__|  \__/        
                                                                              
                      - O R C A' S   B I G   F R I E N D -                    
                                      &                                       
                       - I N T E G R A L  F E E D E R -                       
                                                                              
 v1 FN, 2020, v2 2021, v3 2022-2024                                           
------------------------------------------------------------------------------


----------------------
SHARK INTEGRAL PACKAGE
----------------------

Number of atoms                             ...     15
Number of basis functions                   ...    474
Number of shells                            ...    210
Maximum angular momentum                    ...      3
Integral batch strategy                     ... SHARK/LIBINT Hybrid
RI-J (if used) integral strategy            ... SPLIT-RIJ (Revised 2003 algorithm where possible)
Printlevel                                  ...      1
Contraction scheme used                     ... PARTIAL GENERAL contraction
Prescreening option                         ... SCHWARTZ
   Thresh                                   ... 2.500e-11
   Tcut                                     ... 2.500e-12
   Tpresel                                  ... 2.500e-12 
Coulomb Range Separation                    ... NOT USED
Exchange Range Separation                   ... NOT USED
Multipole approximations                    ... NOT USED
Finite Nucleus Model                        ... NOT USED
CABS basis                                  ... NOT available
Auxiliary Coulomb fitting basis             ... AVAILABLE
   # of basis functions in Aux-J            ...    621
   # of shells in Aux-J                     ...    195
   Maximum angular momentum in Aux-J        ...      4
Auxiliary J/K fitting basis                 ... NOT available
Auxiliary Correlation fitting basis         ... NOT available
Auxiliary 'external' fitting basis          ... NOT available

Checking pre-screening integrals            ... done (  0.0 sec) Dimension = 210
Save PGC pre-screening integrals            ... done (  0.0 sec) Dimension = 210
Calculate PGC overlap integrals             ... done (  0.0 sec) Dimension = 138
Calculating pre-screening integrals (ORCA)  ... done (  0.2 sec) Dimension = 138
Shell pair information
Shell pair cut-off parameter TPreSel        ...   2.5e-12
Total number of shell pairs                 ...     22155
Shell pairs after pre-screening             ...     13057
Total number of primitive shell pairs       ...     28965
Primitive shell pairs kept                  ...     15774
          la=0 lb=0:   3653 shell pairs
          la=1 lb=0:   3776 shell pairs
          la=1 lb=1:    773 shell pairs
          la=2 lb=0:   2135 shell pairs
          la=2 lb=1:    912 shell pairs
          la=2 lb=2:    287 shell pairs
          la=3 lb=0:    829 shell pairs
          la=3 lb=1:    402 shell pairs
          la=3 lb=2:    235 shell pairs
          la=3 lb=3:     55 shell pairs

Checking whether 4 symmetric matrices of dimension 474 fit in memory
:Max Core in MB      =   4096.00
 MB in use           =     17.40
 MB left             =   4078.60
 MB needed           =      3.44
 Data fit in memory  = YES
Calculating RI/J V-Matrix + Cholesky decomp.... done (  0.0 sec)
Calculating Nuclear repulsion               ... done (  0.0 sec) ENN=    839.220725019868 Eh

Diagonalization of the overlap matrix:
Smallest eigenvalue                        ... 7.707e-04
Time for diagonalization                   ...    0.026 sec
Threshold for overlap eigenvalues          ... 1.000e-07
Number of eigenvalues below threshold      ... 0
Time for construction of square roots      ...    0.010 sec
Total time needed                          ...    0.037 sec

-------------------
DFT GRID GENERATION
-------------------

General Integration Accuracy     IntAcc      ... 4.388
Radial Grid Type                 RadialGrid  ... OptM3 with GC (2021)
Angular Grid (max. ang.)         AngularGrid ... 4 (Lebedev-302)
Angular grid pruning method      GridPruning ... 4 (adaptive)
Weight generation scheme         WeightScheme... mBecke (2022)
Basis function cutoff            BFCut       ... 1.0000e-11
Integration weight cutoff        WCut        ... 1.0000e-14
Partially contracted basis set               ... off
Rotationally invariant grid construction     ... off
Angular grids for H and He will be reduced by one unit

Total number of grid points                  ...    82618
Total number of batches                      ...     1299
Average number of points per batch           ...       63
Average number of grid points per atom       ...     5508

---------------------
SHARK GRID GENERATION
---------------------

General Integration Accuracy     IntAcc      ... 4.388
Radial Grid Type                 RadialGrid  ... OptM3 with GC (2021)
Angular Grid (max. ang.)         AngularGrid ... 4 (Lebedev-302)
Angular grid pruning method      GridPruning ... 4 (adaptive)
Weight generation scheme         WeightScheme... mBecke (2022)
Basis function cutoff            BFCut       ... 1.0000e-11
Integration weight cutoff        WCut        ... 1.0000e-14
Partially contracted basis set               ... off
Rotationally invariant grid construction     ... off
Angular grids for H and He will be reduced by one unit
Steep s-basis detected: some atoms will have their radial
                        grid points doubled.

Total number of grid points                  ...   156550
Total number of batches                      ...     2453
Average number of points per batch           ...       63
Average number of grid points per atom       ...    10437

--------------------
COSX GRID GENERATION
--------------------

GRIDX 1
-------
General Integration Accuracy     IntAcc      ... 3.816
Radial Grid Type                 RadialGrid  ... OptM3 with GC (2021)
Angular Grid (max. ang.)         AngularGrid ... 1 (Lebedev-50)
Angular grid pruning method      GridPruning ... 4 (adaptive)
Weight generation scheme         WeightScheme... mBecke (2022)
Basis function cutoff            BFCut       ... 1.0000e-11
Integration weight cutoff        WCut        ... 1.0000e-14
Partially contracted basis set               ... on
Rotationally invariant grid construction     ... off
Angular grids for H and He will be reduced by one unit

Total number of grid points                  ...    10426
Total number of batches                      ...       90
Average number of points per batch           ...      115
Average number of grid points per atom       ...      695
UseSFitting                                  ... on

GRIDX 2
-------
General Integration Accuracy     IntAcc      ... 4.020
Radial Grid Type                 RadialGrid  ... OptM3 with GC (2021)
Angular Grid (max. ang.)         AngularGrid ... 2 (Lebedev-110)
Angular grid pruning method      GridPruning ... 4 (adaptive)
Weight generation scheme         WeightScheme... mBecke (2022)
Basis function cutoff            BFCut       ... 1.0000e-11
Integration weight cutoff        WCut        ... 1.0000e-14
Partially contracted basis set               ... on
Rotationally invariant grid construction     ... off
Angular grids for H and He will be reduced by one unit

Total number of grid points                  ...    24210
Total number of batches                      ...      197
Average number of points per batch           ...      122
Average number of grid points per atom       ...     1614
UseSFitting                                  ... on

GRIDX 3
-------
General Integration Accuracy     IntAcc      ... 4.338
Radial Grid Type                 RadialGrid  ... OptM3 with GC (2021)
Angular Grid (max. ang.)         AngularGrid ... 3 (Lebedev-194)
Angular grid pruning method      GridPruning ... 4 (adaptive)
Weight generation scheme         WeightScheme... mBecke (2022)
Basis function cutoff            BFCut       ... 1.0000e-11
Integration weight cutoff        WCut        ... 1.0000e-14
Partially contracted basis set               ... on
Rotationally invariant grid construction     ... off
Angular grids for H and He will be reduced by one unit

Total number of grid points                  ...    53633
Total number of batches                      ...      425
Average number of points per batch           ...      126
Average number of grid points per atom       ...     3576
UseSFitting                                  ... on
Grids setup in   6.2 sec
Initializing property integral containers    ... done (  0.0 sec)

SHARK setup successfully completed in   6.8 seconds

Maximum memory used throughout the entire STARTUP-calculation: 79.7 MB
-------------------------------------------------------------------------------
                                 ORCA GUESS
                   Start orbitals & Density for SCF / CASSCF
-------------------------------------------------------------------------------

------------
SCF SETTINGS
------------
Hamiltonian:
 Density Functional     Method          .... DFT(GTOs)
 Exchange Functional    Exchange        .... B88
   X-Alpha parameter    XAlpha          ....  0.666667
   Becke's b parameter  XBeta           ....  0.004200
 Correlation Functional Correlation     .... LYP
 LDA part of GGA corr.  LDAOpt          .... VWN-5
 Gradients option       PostSCFGGA      .... off
 Hybrid DFT is turned on
   Fraction HF Exchange ScalHFX         ....  0.200000
   Scaling of DF-GGA-X  ScalDFX         ....  0.720000
   Scaling of DF-GGA-C  ScalDFC         ....  0.810000
   Scaling of DF-LDA-C  ScalLDAC        ....  1.000000
   Perturbative correction              ....  0.000000
   NL short-range parameter             ....  4.800000
 RI-approximation to the Coulomb term is turned on
   Number of AuxJ basis functions       .... 621
   RIJ-COSX (HFX calculated with COS-X)).... on


General Settings:
 Integral files         IntName         .... TFTFE_C1
 Hartree-Fock type      HFTyp           .... RHF
 Total Charge           Charge          ....    0
 Multiplicity           Mult            ....    1
 Number of Electrons    NEL             ....   98
 Basis Dimension        Dim             ....  402
 Nuclear Repulsion      ENuc            ....    839.2207250199 Eh

Convergence Acceleration:
 AO-DIIS                CNVDIIS         .... on
   Start iteration      DIISMaxIt       ....    12
   Startup error        DIISStart       ....  0.200000
   # of expansion vecs  DIISMaxEq       ....     5
   Bias factor          DIISBfac        ....   1.050
   Max. coefficient     DIISMaxC        ....  10.000
 MO-DIIS                CNVKDIIS        .... off
 Trust-Rad. Augm. Hess. CNVTRAH         .... auto
   Auto Start mean grad. ratio tolernc. ....  1.125000
   Auto Start start iteration           ....    50
   Auto Start num. interpolation iter.  ....    10
   Max. Number of Micro iterations      ....    24
   Max. Number of Macro iterations      .... Maxiter - #DIIS iter
   Number of Davidson start vectors     ....     2
   Converg. threshold    (grad. norm)   ....   1.000e-05
   Grad. Scal. Fac. for Micro threshold ....   0.100
   Minimum threshold for Micro iter.    ....   1.000e-02
   NR start threshold (gradient norm)   ....   1.000e-04
   Initial trust radius                 ....   0.400
   Minimum AH scaling param. (alpha)    ....   1.000
   Maximum AH scaling param. (alpha)    .... 1000.000
   Quad. conv. algorithm                .... NR
   White noise on init. David. guess    .... on
   Maximum white noise                  ....   0.010
   Pseudo random numbers                .... off
   Inactive MOs                         .... canonical
   Orbital update algorithm             .... Taylor
   Preconditioner                       .... Diag
   Full preconditioner red. dimension   ....   250
 SOSCF                 CNVSOSCF           .... on
   Start iteration     SOSCFMaxIt         ....   150
   Startup grad/error  SOSCFStart         ....  0.003300
   Hessian update      SOSCFHessUp        .... L-BFGS
   Autom. constraints  SOSCFAutoConstrain .... off
 Level Shifting         CNVShift        .... on
   Level shift para.    LevelShift      ....    0.2500
   Turn off err/grad.   ShiftErr        ....    0.0010
 Zerner damping         CNVZerner       .... off
 Static damping         CNVDamp         .... on
   Fraction old density DampFac         ....    0.7000
   Max. Damping (<1)    DampMax         ....    0.9800
   Min. Damping (>=0)   DampMin         ....    0.0000
   Turn off err/grad.   DampErr         ....    0.1000

SCF Procedure:
 Maximum # iterations   MaxIter         ....   125
 SCF integral mode      SCFMode         .... Direct
   Integral package                     .... SHARK and LIBINT hybrid scheme
 Reset frequency        DirectResetFreq ....    20
 Integral Threshold     Thresh          ....  2.500e-11 Eh
 Primitive CutOff       TCut            ....  2.500e-12 Eh

Convergence Tolerance:
 Convergence Check Mode ConvCheckMode   .... Total+1el-Energy
 Convergence forced     ConvForced      .... 0
 Energy Change          TolE            ....  1.000e-08 Eh
 1-El. energy change                    ....  1.000e-05 Eh
 Orbital Gradient       TolG            ....  1.000e-05
 Orbital Rotation angle TolX            ....  1.000e-05
 DIIS Error             TolErr          ....  5.000e-07

------------------------------
INITIAL GUESS: MODEL POTENTIAL
------------------------------
Loading Hartree-Fock densities                     ... done
Calculating cut-offs                               ... done
Initializing the effective Hamiltonian             ... done
Setting up the integral package (SHARK)            ... done
Starting the Coulomb interaction                   ... done (   0.6 sec)
Making the grid                                    ... done (   0.3 sec)
Mapping shells                                     ... done
Starting the XC term evaluation                    ... done (   0.5 sec)
  promolecular density results
     # of electrons  =     97.999353274
     EX              =   -100.046421026
     EC              =     -3.639891929
     EX+EC           =   -103.686312955
Transforming the Hamiltonian                       ... done (   0.0 sec)
Diagonalizing the Hamiltonian                      ... done (   0.0 sec)
Back transforming the eigenvectors                 ... done (   0.0 sec)
Now organizing SCF variables                       ... done
                      ------------------
                      INITIAL GUESS DONE (   1.5 sec)
                      ------------------
             **** ENERGY FILE WAS UPDATED (TFTFE_C1.en.tmp) ****
Finished Guess after   1.7 sec
Maximum memory used throughout the entire GUESS-calculation: 40.1 MB

-------------------------------------------------------------------------------------------
                                      ORCA LEAN-SCF
                              memory conserving SCF solver
-------------------------------------------------------------------------------------------

----------------------------------------D-I-I-S--------------------------------------------
Iteration    Energy (Eh)           Delta-E    RMSDP     MaxDP     DIISErr   Damp  Time(sec)
-------------------------------------------------------------------------------------------
               ***  Starting incremental Fock matrix formation  ***
    1    -928.1035289131592663     0.00e+00  7.66e-04  4.00e-02  2.23e-01  0.700  15.7
    2    -928.2163148024654902    -1.13e-01  4.28e-04  2.25e-02  8.89e-02  0.700   7.3
                               ***Turning on AO-DIIS***
    3    -928.2536255567275703    -3.73e-02  1.29e-04  5.31e-03  2.32e-02  0.700   8.5
    4    -928.2788059238627056    -2.52e-02  2.22e-04  5.25e-03  1.26e-02  0.000   7.5
                              *** Initializing SOSCF ***
---------------------------------------S-O-S-C-F--------------------------------------
Iteration    Energy (Eh)           Delta-E    RMSDP     MaxDP     MaxGrad    Time(sec)
--------------------------------------------------------------------------------------
    5    -928.3367977448655211    -5.80e-02  6.17e-05  3.57e-03  2.71e-03     7.3
               *** Restarting incremental Fock matrix formation ***
    6    -928.3368787716584620    -8.10e-05  2.28e-05  7.47e-04  3.06e-04    16.3
    7    -928.3368766219722374     2.15e-06  1.07e-05  2.85e-04  3.47e-04    13.1
    8    -928.3368857639258067    -9.14e-06  2.42e-06  1.02e-04  3.75e-05    11.4
    9    -928.3368857647632240    -8.37e-10  1.42e-06  5.32e-05  3.89e-05    10.2
                 **** Energy Check signals convergence ****

               *****************************************************
               *                     SUCCESS                       *
               *           SCF CONVERGED AFTER   9 CYCLES          *
               *****************************************************

Recomputing exchange energy using gridx3       ... done (   30.173 sec)
Old exchange energy                            :    -20.075827842 Eh
New exchange energy                            :    -20.075905473 Eh
Exchange energy change after final integration :     -0.000077630 Eh
Total energy after final integration           :   -928.336963506 Eh
             **** ENERGY FILE WAS UPDATED (TFTFE_C1.en.tmp) ****

----------------
TOTAL SCF ENERGY
----------------

Total Energy       :       -928.33696350636717 Eh          -25261.33304 eV

Components:
Nuclear Repulsion  :        839.22072501986815 Eh           22836.35691 eV
Electronic Energy  :      -1767.55761089588532 Eh          -48097.68783 eV
One Electron Energy:      -2956.75948944759057 Eh          -80457.51609 eV
Two Electron Energy:       1189.20187855170525 Eh           32359.82826 eV

Virial components:
Potential Energy   :      -1851.82047543094632 Eh          -50390.59694 eV
Kinetic Energy     :        923.48351192457903 Eh           25129.26391 eV
Virial Ratio       :          2.00525559094355

DFT components:
N(Alpha)           :       49.000034125777 electrons
N(Beta)            :       49.000034125777 electrons
N(Total)           :       98.000068251553 electrons
E(X)               :      -79.983521151184 Eh       
E(C)               :       -4.259842505602 Eh       
E(XC)              :      -84.243363656786 Eh       

---------------
SCF CONVERGENCE
---------------

  Last Energy change         ...    8.3742e-10  Tolerance :   1.0000e-08
  Last MAX-Density change    ...    5.3185e-05  Tolerance :   1.0000e-07
  Last RMS-Density change    ...    1.4175e-06  Tolerance :   5.0000e-09
  Last DIIS Error            ...    2.7138e-03  Tolerance :   5.0000e-07
  Last Orbital Gradient      ...    3.8881e-05  Tolerance :   1.0000e-05
  Last Orbital Rotation      ...    2.2726e-05  Tolerance :   1.0000e-05


----------------
ORBITAL ENERGIES
----------------

  NO   OCC          E(Eh)            E(eV) 
   0   2.0000     -24.735952      -673.0995 
   1   2.0000     -24.734006      -673.0465 
   2   2.0000     -24.729575      -672.9260 
   3   2.0000     -24.724153      -672.7784 
   4   2.0000     -24.722586      -672.7358 
   5   2.0000     -24.722289      -672.7277 
   6   2.0000     -24.718473      -672.6238 
   7   2.0000     -19.200573      -522.4742 
   8   2.0000     -10.442031      -284.1421 
   9   2.0000     -10.434132      -283.9272 
  10   2.0000     -10.379006      -282.4271 
  11   2.0000     -10.277482      -279.6645 
  12   2.0000      -1.322634       -35.9907 
  13   2.0000      -1.313964       -35.7548 
  14   2.0000      -1.283382       -34.9226 
  15   2.0000      -1.245649       -33.8958 
  16   2.0000      -1.238374       -33.6979 
  17   2.0000      -1.234954       -33.6048 
  18   2.0000      -1.225543       -33.3487 
  19   2.0000      -1.092148       -29.7189 
  20   2.0000      -0.826806       -22.4985 
  21   2.0000      -0.775546       -21.1037 
  22   2.0000      -0.694549       -18.8996 
  23   2.0000      -0.676907       -18.4196 
  24   2.0000      -0.621561       -16.9135 
  25   2.0000      -0.617624       -16.8064 
  26   2.0000      -0.613080       -16.6827 
  27   2.0000      -0.605911       -16.4877 
  28   2.0000      -0.593689       -16.1551 
  29   2.0000      -0.570370       -15.5206 
  30   2.0000      -0.567070       -15.4308 
  31   2.0000      -0.565126       -15.3779 
  32   2.0000      -0.509608       -13.8671 
  33   2.0000      -0.493864       -13.4387 
  34   2.0000      -0.483646       -13.1607 
  35   2.0000      -0.480105       -13.0643 
  36   2.0000      -0.476624       -12.9696 
  37   2.0000      -0.459393       -12.5007 
  38   2.0000      -0.455070       -12.3831 
  39   2.0000      -0.445676       -12.1275 
  40   2.0000      -0.445311       -12.1175 
  41   2.0000      -0.436056       -11.8657 
  42   2.0000      -0.432984       -11.7821 
  43   2.0000      -0.430677       -11.7193 
  44   2.0000      -0.423672       -11.5287 
  45   2.0000      -0.420715       -11.4482 
  46   2.0000      -0.388046       -10.5593 
  47   2.0000      -0.379080       -10.3153 
  48   2.0000      -0.341618        -9.2959 
  49   0.0000       0.025685         0.6989 
  50   0.0000       0.036855         1.0029 
  51   0.0000       0.046458         1.2642 
  52   0.0000       0.060900         1.6572 
  53   0.0000       0.080331         2.1859 
  54   0.0000       0.094507         2.5717 
  55   0.0000       0.139410         3.7935 
  56   0.0000       0.155305         4.2261 
  57   0.0000       0.164060         4.4643 
  58   0.0000       0.179409         4.8820 
  59   0.0000       0.182496         4.9660 
*Only the first 10 virtual orbitals were printed.

                    ********************************
                    * MULLIKEN POPULATION ANALYSIS *
                    ********************************

-----------------------
MULLIKEN ATOMIC CHARGES
-----------------------
   0 O :   -0.307727
   1 C :   -0.066688
   2 C :    0.529124
   3 F :   -0.169779
   4 F :   -0.170188
   5 F :   -0.167499
   6 H :    0.109743
   7 H :    0.099356
   8 C :    0.455133
   9 F :   -0.180349
  10 F :   -0.177704
  11 C :    0.347868
  12 F :   -0.181293
  13 F :   -0.180698
  14 H :    0.060699
Sum of atomic charges:    0.0000000

--------------------------------
MULLIKEN REDUCED ORBITAL CHARGES
--------------------------------
  0 O s       :     3.746013  s :     3.746013
      pz      :     1.328506  p :     4.524195
      px      :     1.419511
      py      :     1.776178
      dz2     :     0.014248  d :     0.035363
      dxz     :     0.005991
      dyz     :     0.004067
      dx2y2   :     0.005673
      dxy     :     0.005385
      f0      :     0.000683  f :     0.002155
      f+1     :     0.000327
      f-1     :     0.000231
      f+2     :     0.000198
      f-2     :     0.000149
      f+3     :     0.000238
      f-3     :     0.000329

  1 C s       :     3.214069  s :     3.214069
      pz      :     0.971209  p :     2.743072
      px      :     0.766687
      py      :     1.005177
      dz2     :     0.021940  d :     0.099560
      dxz     :     0.014846
      dyz     :     0.015039
      dx2y2   :     0.020200
      dxy     :     0.027535
      f0      :     0.001257  f :     0.009987
      f+1     :     0.001167
      f-1     :     0.001538
      f+2     :     0.000985
      f-2     :     0.001052
      f+3     :     0.002315
      f-3     :     0.001674

  2 C s       :     2.927557  s :     2.927557
      pz      :     0.850798  p :     2.172046
      px      :     0.637040
      py      :     0.684208
      dz2     :     0.060170  d :     0.330316
      dxz     :     0.059835
      dyz     :     0.062980
      dx2y2   :     0.074836
      dxy     :     0.072496
      f0      :     0.005637  f :     0.040957
      f+1     :     0.003436
      f-1     :     0.004865
      f+2     :     0.004068
      f-2     :     0.007656
      f+3     :     0.008159
      f-3     :     0.007136

  3 F s       :     3.885017  s :     3.885017
      pz      :     1.686408  p :     5.268315
      px      :     1.874211
      py      :     1.707695
      dz2     :     0.003235  d :     0.015668
      dxz     :     0.002049
      dyz     :     0.006313
      dx2y2   :     0.002210
      dxy     :     0.001863
      f0      :     0.000094  f :     0.000779
      f+1     :     0.000041
      f-1     :     0.000220
      f+2     :     0.000185
      f-2     :     0.000138
      f+3     :     0.000053
      f-3     :     0.000046

  4 F s       :     3.885718  s :     3.885718
      pz      :     1.873393  p :     5.268220
      px      :     1.568217
      py      :     1.826610
      dz2     :     0.002197  d :     0.015480
      dxz     :     0.003297
      dyz     :     0.001042
      dx2y2   :     0.004282
      dxy     :     0.004662
      f0      :     0.000073  f :     0.000769
      f+1     :     0.000125
      f-1     :     0.000031
      f+2     :     0.000071
      f-2     :     0.000095
      f+3     :     0.000134
      f-3     :     0.000240

  5 F s       :     3.885761  s :     3.885761
      pz      :     1.898446  p :     5.265245
      px      :     1.701377
      py      :     1.665421
      dz2     :     0.002328  d :     0.015713
      dxz     :     0.001627
      dyz     :     0.001910
      dx2y2   :     0.002958
      dxy     :     0.006889
      f0      :     0.000059  f :     0.000780
      f+1     :     0.000087
      f-1     :     0.000100
      f+2     :     0.000006
      f-2     :     0.000102
      f+3     :     0.000230
      f-3     :     0.000196

  6 H s       :     0.857305  s :     0.857305
      pz      :     0.010970  p :     0.030258
      px      :     0.009498
      py      :     0.009790
      dz2     :     0.000185  d :     0.002693
      dxz     :     0.000370
      dyz     :     0.000773
      dx2y2   :     0.000732
      dxy     :     0.000634

  7 H s       :     0.864620  s :     0.864620
      pz      :     0.013711  p :     0.033373
      px      :     0.010065
      py      :     0.009597
      dz2     :     0.000855  d :     0.002652
      dxz     :     0.000452
      dyz     :     0.000417
      dx2y2   :     0.000421
      dxy     :     0.000507

  8 C s       :     2.999386  s :     2.999386
      pz      :     0.724999  p :     2.186804
      px      :     0.817242
      py      :     0.644563
      dz2     :     0.064471  d :     0.323319
      dxz     :     0.049461
      dyz     :     0.078822
      dx2y2   :     0.067234
      dxy     :     0.063331
      f0      :     0.004112  f :     0.035358
      f+1     :     0.004668
      f-1     :     0.007540
      f+2     :     0.004744
      f-2     :     0.003579
      f+3     :     0.005708
      f-3     :     0.005005

  9 F s       :     3.887685  s :     3.887685
      pz      :     1.828338  p :     5.276312
      px      :     1.699989
      py      :     1.747986
      dz2     :     0.002116  d :     0.015596
      dxz     :     0.003165
      dyz     :     0.002880
      dx2y2   :     0.002674
      dxy     :     0.004761
      f0      :     0.000095  f :     0.000756
      f+1     :     0.000068
      f-1     :     0.000059
      f+2     :     0.000057
      f-2     :     0.000219
      f+3     :     0.000123
      f-3     :     0.000136

 10 F s       :     3.892554  s :     3.892554
      pz      :     1.869993  p :     5.268445
      px      :     1.872833
      py      :     1.525618
      dz2     :     0.002225  d :     0.015942
      dxz     :     0.000685
      dyz     :     0.004049
      dx2y2   :     0.005295
      dxy     :     0.003688
      f0      :     0.000080  f :     0.000763
      f+1     :     0.000014
      f-1     :     0.000129
      f+2     :     0.000139
      f-2     :     0.000051
      f+3     :     0.000163
      f-3     :     0.000188

 11 C s       :     3.086362  s :     3.086362
      pz      :     0.623917  p :     2.334649
      px      :     0.819926
      py      :     0.890806
      dz2     :     0.049843  d :     0.205294
      dxz     :     0.051940
      dyz     :     0.045191
      dx2y2   :     0.035756
      dxy     :     0.022564
      f0      :     0.004291  f :     0.025827
      f+1     :     0.006163
      f-1     :     0.005835
      f+2     :     0.002141
      f-2     :     0.002107
      f+3     :     0.002682
      f-3     :     0.002607

 12 F s       :     3.889190  s :     3.889190
      pz      :     1.827693  p :     5.276048
      px      :     1.705618
      py      :     1.742737
      dz2     :     0.001818  d :     0.015324
      dxz     :     0.003035
      dyz     :     0.002596
      dx2y2   :     0.003102
      dxy     :     0.004774
      f0      :     0.000089  f :     0.000730
      f+1     :     0.000060
      f-1     :     0.000052
      f+2     :     0.000053
      f-2     :     0.000213
      f+3     :     0.000123
      f-3     :     0.000140

 13 F s       :     3.889485  s :     3.889485
      pz      :     1.484057  p :     5.275153
      px      :     1.886828
      py      :     1.904268
      dz2     :     0.008117  d :     0.015329
      dxz     :     0.003553
      dyz     :     0.003169
      dx2y2   :     0.000294
      dxy     :     0.000196
      f0      :     0.000387  f :     0.000731
      f+1     :     0.000171
      f-1     :     0.000141
      f+2     :     0.000021
      f-2     :     0.000011
      f+3     :     0.000001
      f-3     :     0.000001

 14 H s       :     0.906252  s :     0.906252
      pz      :     0.006219  p :     0.030463
      px      :     0.009720
      py      :     0.014524
      dz2     :     0.000369  d :     0.002585
      dxz     :     0.000072
      dyz     :     0.000636
      dx2y2   :     0.000639
      dxy     :     0.000870



                     *******************************
                     * LOEWDIN POPULATION ANALYSIS *
                     *******************************

----------------------
LOEWDIN ATOMIC CHARGES
----------------------
   0 O :    0.302419
   1 C :   -0.073488
   2 C :   -0.744403
   3 F :    0.240007
   4 F :    0.240433
   5 F :    0.241468
   6 H :   -0.019845
   7 H :   -0.025920
   8 C :   -0.672947
   9 F :    0.237375
  10 F :    0.247155
  11 C :   -0.399456
  12 F :    0.229556
  13 F :    0.231065
  14 H :   -0.033419

-------------------------------
LOEWDIN REDUCED ORBITAL CHARGES
-------------------------------
  0 O s       :     3.267026  s :     3.267026
      pz      :     1.313827  p :     4.333886
      px      :     1.382643
      py      :     1.637416
      dz2     :     0.033602  d :     0.091015
      dxz     :     0.021610
      dyz     :     0.009253
      dx2y2   :     0.013221
      dxy     :     0.013330
      f0      :     0.001639  f :     0.005654
      f+1     :     0.001189
      f-1     :     0.000751
      f+2     :     0.000427
      f-2     :     0.000338
      f+3     :     0.000644
      f-3     :     0.000666

  1 C s       :     2.704704  s :     2.704704
      pz      :     0.967464  p :     2.790745
      px      :     0.815312
      py      :     1.007969
      dz2     :     0.107225  d :     0.507277
      dxz     :     0.079793
      dyz     :     0.085269
      dx2y2   :     0.089617
      dxy     :     0.145373
      f0      :     0.007977  f :     0.070762
      f+1     :     0.011899
      f-1     :     0.007207
      f+2     :     0.009486
      f-2     :     0.008070
      f+3     :     0.014854
      f-3     :     0.011268

  2 C s       :     2.770951  s :     2.770951
      pz      :     0.943224  p :     2.546027
      px      :     0.781942
      py      :     0.820861
      dz2     :     0.231284  d :     1.172186
      dxz     :     0.180594
      dyz     :     0.245118
      dx2y2   :     0.235361
      dxy     :     0.279828
      f0      :     0.031382  f :     0.255238
      f+1     :     0.027207
      f-1     :     0.029107
      f+2     :     0.030648
      f-2     :     0.044201
      f+3     :     0.047678
      f-3     :     0.045016

  3 F s       :     3.589171  s :     3.589171
      pz      :     1.661486  p :     5.141077
      px      :     1.797478
      py      :     1.682113
      dz2     :     0.006315  d :     0.028316
      dxz     :     0.003095
      dyz     :     0.011592
      dx2y2   :     0.003892
      dxy     :     0.003422
      f0      :     0.000217  f :     0.001429
      f+1     :     0.000073
      f-1     :     0.000386
      f+2     :     0.000304
      f-2     :     0.000251
      f+3     :     0.000104
      f-3     :     0.000095

  4 F s       :     3.589785  s :     3.589785
      pz      :     1.793342  p :     5.140284
      px      :     1.583279
      py      :     1.763663
      dz2     :     0.003948  d :     0.028089
      dxz     :     0.006245
      dyz     :     0.001866
      dx2y2   :     0.007510
      dxy     :     0.008520
      f0      :     0.000137  f :     0.001410
      f+1     :     0.000231
      f-1     :     0.000059
      f+2     :     0.000124
      f-2     :     0.000195
      f+3     :     0.000282
      f-3     :     0.000382

  5 F s       :     3.589967  s :     3.589967
      pz      :     1.814574  p :     5.138763
      px      :     1.676580
      py      :     1.647609
      dz2     :     0.004296  d :     0.028371
      dxz     :     0.003008
      dyz     :     0.003805
      dx2y2   :     0.004855
      dxy     :     0.012408
      f0      :     0.000141  f :     0.001431
      f+1     :     0.000143
      f-1     :     0.000150
      f+2     :     0.000012
      f-2     :     0.000249
      f+3     :     0.000397
      f-3     :     0.000340

  6 H s       :     0.839589  s :     0.839589
      pz      :     0.038580  p :     0.151165
      px      :     0.049125
      py      :     0.063461
      dz2     :     0.002922  d :     0.029090
      dxz     :     0.003389
      dyz     :     0.006275
      dx2y2   :     0.007814
      dxy     :     0.008690

  7 H s       :     0.836733  s :     0.836733
      pz      :     0.059943  p :     0.159491
      px      :     0.038770
      py      :     0.060778
      dz2     :     0.006772  d :     0.029696
      dxz     :     0.005167
      dyz     :     0.007044
      dx2y2   :     0.005402
      dxy     :     0.005311

  8 C s       :     2.771009  s :     2.771009
      pz      :     0.839185  p :     2.576506
      px      :     0.949113
      py      :     0.788208
      dz2     :     0.254765  d :     1.102881
      dxz     :     0.164302
      dyz     :     0.233931
      dx2y2   :     0.235331
      dxy     :     0.214552
      f0      :     0.028714  f :     0.222550
      f+1     :     0.028091
      f-1     :     0.042031
      f+2     :     0.029244
      f-2     :     0.029531
      f+3     :     0.033271
      f-3     :     0.031668

  9 F s       :     3.588839  s :     3.588839
      pz      :     1.766021  p :     5.143519
      px      :     1.668726
      py      :     1.708772
      dz2     :     0.003956  d :     0.028856
      dxz     :     0.005876
      dyz     :     0.005248
      dx2y2   :     0.005143
      dxy     :     0.008632
      f0      :     0.000137  f :     0.001411
      f+1     :     0.000169
      f-1     :     0.000144
      f+2     :     0.000120
      f-2     :     0.000352
      f+3     :     0.000237
      f-3     :     0.000251

 10 F s       :     3.586397  s :     3.586397
      pz      :     1.792890  p :     5.135698
      px      :     1.791296
      py      :     1.551512
      dz2     :     0.003915  d :     0.029317
      dxz     :     0.001042
      dyz     :     0.007484
      dx2y2   :     0.009656
      dxy     :     0.007220
      f0      :     0.000127  f :     0.001433
      f+1     :     0.000032
      f-1     :     0.000263
      f+2     :     0.000263
      f-2     :     0.000088
      f+3     :     0.000332
      f-3     :     0.000328

 11 C s       :     2.754670  s :     2.754670
      pz      :     0.748318  p :     2.604560
      px      :     0.908525
      py      :     0.947717
      dz2     :     0.229435  d :     0.871093
      dxz     :     0.182867
      dyz     :     0.163632
      dx2y2   :     0.177667
      dxy     :     0.117492
      f0      :     0.032280  f :     0.169133
      f+1     :     0.036589
      f-1     :     0.032117
      f+2     :     0.014918
      f-2     :     0.021557
      f+3     :     0.015658
      f-3     :     0.016014

 12 F s       :     3.593349  s :     3.593349
      pz      :     1.766990  p :     5.147701
      px      :     1.671228
      py      :     1.709483
      dz2     :     0.003332  d :     0.028042
      dxz     :     0.005221
      dyz     :     0.004548
      dx2y2   :     0.006668
      dxy     :     0.008273
      f0      :     0.000122  f :     0.001352
      f+1     :     0.000143
      f-1     :     0.000126
      f+2     :     0.000141
      f-2     :     0.000309
      f+3     :     0.000260
      f-3     :     0.000251

 13 F s       :     3.591789  s :     3.591789
      pz      :     1.515435  p :     5.147565
      px      :     1.804874
      py      :     1.827255
      dz2     :     0.014046  d :     0.028220
      dxz     :     0.006687
      dyz     :     0.006866
      dx2y2   :     0.000419
      dxy     :     0.000203
      f0      :     0.000561  f :     0.001362
      f+1     :     0.000363
      f-1     :     0.000374
      f+2     :     0.000049
      f-2     :     0.000012
      f+3     :     0.000001
      f-3     :     0.000001

 14 H s       :     0.861810  s :     0.861810
      pz      :     0.028248  p :     0.143372
      px      :     0.032394
      py      :     0.082730
      dz2     :     0.003811  d :     0.028236
      dxz     :     0.000697
      dyz     :     0.007209
      dx2y2   :     0.008647
      dxy     :     0.007873



                      *****************************
                      * MAYER POPULATION ANALYSIS *
                      *****************************

  NA   - Mulliken gross atomic population
  ZA   - Total nuclear charge
  QA   - Mulliken gross atomic charge
  VA   - Mayer's total valence
  BVA  - Mayer's bonded valence
  FA   - Mayer's free valence

  ATOM       NA         ZA         QA         VA         BVA        FA
  0 O      8.3077     8.0000    -0.3077     2.1609     2.1609    -0.0000
  1 C      6.0667     6.0000    -0.0667     3.8975     3.8975     0.0000
  2 C      5.4709     6.0000     0.5291     4.5497     4.5497     0.0000
  3 F      9.1698     9.0000    -0.1698     1.2113     1.2113    -0.0000
  4 F      9.1702     9.0000    -0.1702     1.2089     1.2089     0.0000
  5 F      9.1675     9.0000    -0.1675     1.2135     1.2135     0.0000
  6 H      0.8903     1.0000     0.1097     0.9957     0.9957     0.0000
  7 H      0.9006     1.0000     0.0994     1.0119     1.0119     0.0000
  8 C      5.5449     6.0000     0.4551     4.3372     4.3372    -0.0000
  9 F      9.1803     9.0000    -0.1803     1.1927     1.1927    -0.0000
 10 F      9.1777     9.0000    -0.1777     1.2019     1.2019     0.0000
 11 C      5.6521     6.0000     0.3479     4.2104     4.2104    -0.0000
 12 F      9.1813     9.0000    -0.1813     1.1786     1.1786    -0.0000
 13 F      9.1807     9.0000    -0.1807     1.1803     1.1803    -0.0000
 14 H      0.9393     1.0000     0.0607     0.9920     0.9920     0.0000

  Mayer bond orders larger than 0.100000
B(  0-O ,  1-C ) :   0.9552 B(  0-O ,  8-C ) :   1.1357 B(  1-C ,  2-C ) :   0.9713 
B(  1-C ,  6-H ) :   0.9470 B(  1-C ,  7-H ) :   0.9383 B(  2-C ,  3-F ) :   1.1798 
B(  2-C ,  4-F ) :   1.1647 B(  2-C ,  5-F ) :   1.1823 B(  8-C ,  9-F ) :   1.1204 
B(  8-C , 10-F ) :   1.1219 B(  8-C , 11-C ) :   0.9043 B( 11-C , 12-F ) :   1.1506 
B( 11-C , 13-F ) :   1.1320 B( 11-C , 14-H ) :   0.9654 

-------
TIMINGS
-------

Total SCF time: 0 days 0 hours 2 min 16 sec 

Total time                  ....     136.990 sec
Sum of individual times     ....     127.720 sec  ( 93.2%)

SCF preparation             ....       0.151 sec  (  0.1%)
Fock matrix formation       ....     126.910 sec  ( 92.6%)
  Startup                   ....       0.008 sec  (  0.0% of F)
  Split-RI-J                ....       8.463 sec  (  6.7% of F)
  Chain of spheres X        ....     113.225 sec  ( 89.2% of F)
  XC integration            ....      14.315 sec  ( 11.3% of F)
    XC Preparation          ....       0.000 sec  (  0.0% of XC)
    Basis function eval.    ....       4.402 sec  ( 30.8% of XC)
    Density eval.           ....       3.956 sec  ( 27.6% of XC)
    XC-Functional eval.     ....       0.368 sec  (  2.6% of XC)
    XC-Potential eval.      ....       5.271 sec  ( 36.8% of XC)
Diagonalization             ....       0.000 sec  (  0.0%)
Density matrix formation    ....       0.048 sec  (  0.0%)
Total Energy calculation    ....       0.009 sec  (  0.0%)
Population analysis         ....       0.031 sec  (  0.0%)
Orbital Transformation      ....       0.099 sec  (  0.1%)
Orbital Orthonormalization  ....       0.000 sec  (  0.0%)
DIIS solution               ....       0.305 sec  (  0.2%)
SOSCF solution              ....       0.166 sec  (  0.1%)
Finished LeanSCF after 137.0 sec

Maximum memory used throughout the entire LEANSCF-calculation: 58.7 MB

------------------------------------------------------------------------------
                         ORCA PROPERTY INTEGRAL CALCULATIONS
------------------------------------------------------------------------------

GBWName                                   ... TFTFE_C1.gbw
Number of atoms                           ...     15
Number of basis functions                 ...    474
Max core memory                           ...   4096 MB

Dipole integrals                          ... YES
Quadrupole integrals                      ...  NO
Linear momentum integrals                 ...  NO
Angular momentum integrals                ...  NO
Higher moments length integrals           ...  NO
Higher moments velocity integrals         ...  NO
Kinetic energy integrals                  ...  NO
GIAO right hand sides                     ...  NO
GIAO dipole derivative integrals          ...  NO
SOC integrals                             ...  NO
EPR diamagnetic integrals (GIAO)          ...  NO
EPR gauge integrals                       ...  NO
Field gradient integrals                  ...  NO (   0 nuclei)
Spin-dipole/Fermi contact integrals       ...  NO (   0 nuclei)
Contact density integrals                 ...  NO (   0 nuclei)
Nucleus-orbit integrals                   ...  NO (   0 nuclei)
Geometric perturbations                   ...  NO (  15 nuclei)

Choice of electric origin   ... Center of mass
Position of electric origin ... ( -0.7211, -0.1283, -2.8700) 
Choice of magnetic origin   ... GIAO
Position of magnetic origin ... (  0.0000,  0.0000,  0.0000) 

Calculating integrals                     ... Electric Dipole (Length)     done (  0.0 sec)

Property integrals calculated in   0.0 sec

Maximum memory used throughout the entire PROPINT-calculation: 40.9 MB

-------------------------   --------------------
FINAL SINGLE POINT ENERGY      -928.336963506367
-------------------------   --------------------

------------------------------------------------------------------------------
                         ORCA SCF GRADIENT CALCULATION
------------------------------------------------------------------------------

Nuc. rep. gradient        (SHARK) ... done (  0.0 sec)
HCore & Overlap gradient  (SHARK) ... done (  0.7 sec)
Split-RIJ-J gradient      (SHARK) ... done (  4.7 sec)
done ( 71.8 sec)
XC gradient                       ... done (  8.5 sec)

------------------
CARTESIAN GRADIENT
------------------

   1   O   :   -0.013532670   -0.005955209    0.026796146
   2   C   :    0.009678745    0.004705869    0.006111562
   3   C   :   -0.009299861   -0.001516553   -0.003222749
   4   F   :    0.000887811   -0.005381914    0.003983724
   5   F   :   -0.004934400    0.005201483    0.004592620
   6   F   :    0.005788349    0.006564170   -0.000524826
   7   H   :   -0.000203622   -0.003801857   -0.004519257
   8   H   :   -0.003236294    0.001355193   -0.005143800
   9   C   :    0.024657579   -0.010651799   -0.039136690
  10   F   :   -0.006774110   -0.000148265    0.009627897
  11   F   :   -0.006193550    0.004423391    0.008831708
  12   C   :   -0.021809286    0.003550988   -0.000403802
  13   F   :    0.010135490    0.001744249   -0.002237758
  14   F   :    0.010857572    0.000887215   -0.004295538
  15   H   :    0.003978247   -0.000976959   -0.000459239

Difference to translation invariance:
           :   -0.0000000000    0.0000000002    0.0000000000

Difference to rotation invariance:
           :   -0.0002263879   -0.0002737945    0.0000970894

Norm of the Cartesian gradient     ...    0.0688377673
RMS gradient                       ...    0.0102617285
MAX gradient                       ...    0.0391366901

-------
TIMINGS
-------

Total SCF gradient time     ....       85.667 sec

Densities                   ....       0.002 sec  (  0.0%)
One electron gradient       ....       0.676 sec  (  0.8%)
RI-J Coulomb gradient       ....       4.670 sec  (  5.5%)
COSX gradient               ....      71.831 sec  ( 83.8%)
XC gradient                 ....       8.487 sec  (  9.9%)

Maximum memory used throughout the entire SCFGRAD-calculation: 72.3 MB
------------------------------------------------------------------------------
                         ORCA GEOMETRY RELAXATION STEP
------------------------------------------------------------------------------

Reading the OPT-File                    .... done
Getting information on internals        .... done
Copying old internal coords+grads       .... done
Making the new internal coordinates     .... (2022 redundants) done
Validating the new internal coordinates .... (2022 redundants) done
Calculating the B-matrix                .... done
Calculating the G,G- and P matrices     .... done
Transforming gradient to internals      .... done
Projecting the internal gradient        .... done
Number of atoms                         ....  15
Number of internal coordinates          ....  57
Current Energy                          ....  -928.336963506 Eh
Current gradient norm                   ....     0.068837767 Eh/bohr
Maximum allowed component of the step   ....  0.300
Current trust radius                    ....  0.300
Evaluating the initial hessian          ....  (Almloef) done
Projecting the Hessian                  .... done
Forming the augmented Hessian           .... done
Diagonalizing the augmented Hessian     .... done
Last element of RFO vector              ....  0.980082046
Lowest eigenvalues of augmented Hessian:
 -0.010294208  0.011087654  0.011734965  0.017905690  0.019532972
Length of the computed step             ....  0.202628964
The final length of the internal step   ....  0.202628964
Converting the step to Cartesian space:
 Initial RMS(Int)=    0.0268388619
Transforming coordinates:
 Iter   0:  RMS(Cart)=    0.0999015698 RMS(Int)=    0.8301090117
 Iter   5:  RMS(Cart)=    0.0000001235 RMS(Int)=    0.0000000910
done
Storing new coordinates                 .... done

                                .--------------------.
          ----------------------|Geometry convergence|-------------------------
          Item                value                   Tolerance       Converged
          ---------------------------------------------------------------------
          RMS gradient        0.0082526716            0.0001000000      NO
          MAX gradient        0.0298261284            0.0003000000      NO
          RMS step            0.0268388619            0.0020000000      NO
          MAX step            0.0783852441            0.0040000000      NO
          -------------------------------------------------------------------------
          ........................................................
          Max(Bonds)      0.0313      Max(Angles)    3.33
          Max(Dihed)        4.49      Max(Improp)    0.00
          ---------------------------------------------------------------------

The optimization has not yet converged - more geometry cycles are needed


    ---------------------------------------------------------------------------
                         Redundant Internal Coordinates
                            (Angstroem and degrees)

        Definition                    Value    dE/dq     Step     New-Value
    ----------------------------------------------------------------------------
     1. B(C   1,O   0)                1.4338  0.003759 -0.0041    1.4297   
     2. B(C   2,C   1)                1.5237  0.006226 -0.0084    1.5153   
     3. B(F   3,C   2)                1.3508  0.006648 -0.0058    1.3451   
     4. B(F   4,C   2)                1.3522  0.007510 -0.0065    1.3457   
     5. B(F   5,C   2)                1.3517  0.008707 -0.0076    1.3441   
     6. B(H   6,C   1)                1.0954  0.003146 -0.0046    1.0908   
     7. B(H   7,C   1)                1.0953  0.005370 -0.0078    1.0874   
     8. B(C   8,O   0)                1.4239  0.029826 -0.0313    1.3926   
     9. B(F   9,C   8)                1.3568  0.000301 -0.0003    1.3566   
    10. B(F  10,C   8)                1.3566  0.002991 -0.0026    1.3539   
    11. B(C  11,C   8)                1.5309  0.003565 -0.0049    1.5260   
    12. B(F  12,C  11)                1.3616  0.006769 -0.0061    1.3555   
    13. B(F  13,C  11)                1.3598  0.005858 -0.0052    1.3546   
    14. B(H  14,C  11)                1.0934  0.001679 -0.0024    1.0910   
    15. A(C   1,O   0,C   8)          112.30 -0.016919    2.41    114.71   
    16. A(O   0,C   1,H   7)          111.72 -0.004091    0.60    112.32   
    17. A(C   2,C   1,H   6)          109.85  0.001858   -0.59    109.26   
    18. A(C   2,C   1,H   7)          108.28 -0.001090   -0.10    108.18   
    19. A(H   6,C   1,H   7)          107.88 -0.001548    1.00    108.88   
    20. A(O   0,C   1,H   6)          108.32 -0.006690    1.18    109.50   
[...]
     25       0.054610   0.016085   0.016782   0.007500   0.019429  -0.005588
     26       0.148232  -0.019806   0.021000  -0.050974   0.081453  -0.013896
     27      -0.001587  -0.000793   0.003306  -0.013955   0.007451   0.000757
     28      -0.009372  -0.003346   0.000038  -0.011528   0.001184   0.001824
     29      -0.009773  -0.001054  -0.001191  -0.000517  -0.005229   0.001220
     30       0.000699   0.003328  -0.000272  -0.013601   0.008400  -0.000093
     31       0.000197  -0.005822  -0.000982   0.008149  -0.003386  -0.000415
     32      -0.011812   0.006061  -0.001299  -0.003588  -0.005212   0.001789
     33      -0.026149   0.011487  -0.034020  -0.179120   0.109504  -0.001212
     34       0.013927  -0.002884  -0.080035   0.003732  -0.001411   0.000557
     35       0.019699  -0.002362  -0.079568   0.072818  -0.040021   0.000773
     36       0.000814  -0.001809   0.007053   0.021466  -0.013198   0.000203
     37      -0.003111  -0.000751  -0.013562  -0.001142  -0.001624   0.000061
     38      -0.001132  -0.000049   0.017696   0.000754  -0.000420  -0.000060
     39       0.010253  -0.001458  -0.003737   0.018221  -0.009036  -0.000305
     40      -0.008249   0.000731   0.019289  -0.009292   0.004236   0.000108
     41      -0.007481   0.002479  -0.010773  -0.008340   0.002440   0.000842
     42       0.142937   0.001549   0.287312   0.708676  -0.371979   0.004402
     43      -0.047143  -0.006793   0.683028   0.073206  -0.035383  -0.003649
     44      -0.148564  -0.001636   0.659420  -0.358984   0.203355  -0.008196
                 42         43         44    
      0       0.001421   0.000173  -0.000238
      1      -0.000478   0.000033  -0.000319
      2      -0.001623  -0.000275   0.000056
      3       0.051492   0.000911   0.024415
      4      -0.009883   0.000437   0.092885
      5       0.039789   0.000213  -0.008137
      6       0.001076   0.000097   0.000730
      7      -0.000391  -0.000068   0.002869
      8      -0.000843   0.000044  -0.000221
      9      -0.000137  -0.000016   0.000025
     10       0.000185   0.000028  -0.000527
     11      -0.000264  -0.000014   0.000384
     12      -0.000450  -0.000015  -0.000057
     13       0.000140   0.000008  -0.000267
     14       0.000195  -0.000005   0.000018
     15      -0.000222  -0.000009  -0.000303
     16      -0.000133   0.000005  -0.000495
     17      -0.000241  -0.000007  -0.000312
     18      -0.466706  -0.009134  -0.465881
     19      -0.503104  -0.009542  -0.488445
     20      -0.176252  -0.003315  -0.187655
     21      -0.165445  -0.001492   0.175538
     22       0.626434   0.004051  -0.622543
     23      -0.271511  -0.001327   0.285387
     24       0.000915  -0.001027   0.000210
     25       0.000137  -0.001015   0.000195
     26       0.001909   0.001283  -0.000095
     27      -0.000340   0.000301  -0.000222
     28      -0.000158   0.000333  -0.000063
     29      -0.000110  -0.000030   0.000048
     30      -0.000279  -0.000410   0.000130
     31       0.000225   0.000464  -0.000131
     32      -0.000204  -0.000331  -0.000010
     33      -0.000563   0.030593  -0.000183
     34       0.000804  -0.061445   0.000504
     35      -0.000577   0.050143  -0.000347
     36       0.000035  -0.000615   0.000002
     37       0.000010  -0.000410  -0.000018
     38      -0.000010  -0.000639   0.000002
     39       0.000059  -0.000138   0.000001
     40      -0.000039   0.000814  -0.000013
     41      -0.000101   0.000526  -0.000004
     42       0.004186  -0.339422   0.002168
     43      -0.008889   0.721412  -0.004709
     44       0.007463  -0.597427   0.003875


-----------
IR SPECTRUM
-----------

 Mode   freq       eps      Int      T**2         TX        TY        TZ
       cm**-1   L/(mol*cm) km/mol    a.u.
----------------------------------------------------------------------------
  6:     14.38   0.000377    1.90  0.008174  (-0.031069 -0.084228 -0.010712)
  7:     43.21   0.000037    0.18  0.000264  ( 0.007342 -0.010962 -0.009479)
  8:     67.18   0.000078    0.39  0.000362  (-0.003363 -0.001115 -0.018684)
  9:     85.60   0.000385    1.95  0.001405  (-0.035194  0.008419  0.009785)
 10:    132.44   0.000681    3.44  0.001605  (-0.014661 -0.036748  0.006333)
 11:    192.10   0.000094    0.48  0.000153  ( 0.004892 -0.011237  0.001729)
 12:    223.85   0.000867    4.38  0.001209  ( 0.019496 -0.025635 -0.013109)
 13:    247.03   0.000245    1.24  0.000309  (-0.002077  0.013489 -0.011075)
 14:    309.30   0.000344    1.74  0.000347  (-0.004049 -0.006136 -0.017121)
 15:    353.87   0.000317    1.60  0.000280  ( 0.002562  0.016530 -0.000023)
 16:    389.29   0.000387    1.96  0.000310  (-0.002018  0.010736  0.013819)
 17:    434.61   0.000583    2.94  0.000418  ( 0.020362 -0.001105  0.001576)
 18:    519.31   0.000666    3.36  0.000400  ( 0.006982 -0.011898  0.014484)
 19:    533.48   0.000479    2.42  0.000280  (-0.000026 -0.016464  0.003055)
 20:    544.91   0.001028    5.20  0.000589  ( 0.005241  0.009230 -0.021820)
 21:    583.71   0.002404   12.15  0.001285  ( 0.023470 -0.004616 -0.026703)
 22:    591.11   0.001711    8.65  0.000903  (-0.007265 -0.004141 -0.028868)
 23:    649.68   0.004489   22.68  0.002156  (-0.012715  0.012589  0.042846)
 24:    774.56   0.010590   53.52  0.004267  (-0.054333  0.036207 -0.001904)
 25:    844.61   0.008931   45.13  0.003300  ( 0.034648 -0.025867  0.037817)
 26:    875.70   0.000293    1.48  0.000104  ( 0.009842 -0.002072  0.001794)
 27:    973.43   0.009153   46.25  0.002934  (-0.015416 -0.051097  0.009249)
 28:   1042.63   0.005369   27.13  0.001607  (-0.025643  0.030808 -0.000636)
 29:   1098.91   0.032975  166.64  0.009364  (-0.049676 -0.081083  0.017945)
 30:   1133.10   0.036635  185.14  0.010089  (-0.042505 -0.082766 -0.037849)
 31:   1140.37   0.023016  116.31  0.006298  (-0.070706 -0.008258  0.035083)
 32:   1170.91   0.039670  200.47  0.010572  (-0.097478  0.032661  0.001965)
 33:   1181.00   0.050430  254.85  0.013326  (-0.007374 -0.085954 -0.076701)
 34:   1201.60   0.114517  578.72  0.029741  (-0.047632 -0.001402  0.165741)
 35:   1287.67   0.017226   87.05  0.004175  ( 0.042153 -0.048769 -0.004407)
 36:   1294.89   0.015645   79.06  0.003770  (-0.051162  0.011977 -0.031770)
 37:   1308.13   0.017979   90.86  0.004289  (-0.013462 -0.064089 -0.000635)
 38:   1373.27   0.001651    8.34  0.000375  (-0.009695 -0.012441 -0.011240)
 39:   1421.17   0.001181    5.97  0.000259  (-0.005381  0.000882  0.015151)
 40:   1452.14   0.007108   35.92  0.001527  (-0.008865  0.009514  0.036855)
 41:   1501.30   0.001198    6.05  0.000249  ( 0.003057  0.000203  0.015479)
 42:   3068.05   0.002787   14.09  0.000283  ( 0.014332 -0.005198 -0.007146)
 43:   3088.77   0.003630   18.34  0.000367  ( 0.000574 -0.013553  0.013517)
 44:   3124.37   0.000628    3.17  0.000063  ( 0.001417  0.007752 -0.000780)

* The epsilon (eps) is given for a Dirac delta lineshape.
** The dipole moment derivative (T) already includes vibrational overlap.

The first frequency considered to be a vibration is 6
The total number of vibrations considered is 39


--------------------------
THERMOCHEMISTRY AT 298.15K
--------------------------

Temperature         ...   298.15 K
Pressure            ...     1.00 atm
Total Mass          ...   200.05 AMU
Quasi RRHO          ...     True
Cut-Off Frequency   ...     1.00 cm^-1

Throughout the following assumptions are being made:
  (1) The electronic state is orbitally nondegenerate
  (2) There are no thermally accessible electronically excited states
  (3) Hindered rotations indicated by low frequency modes are not
      treated as such but are treated as vibrations and this may
      cause some error
  (4) All equations used are the standard statistical mechanics
      equations for an ideal gas
  (5) All vibrations are strictly harmonic

freq.      14.38  E(vib)   ...       0.57 
freq.      43.21  E(vib)   ...       0.53 
freq.      67.18  E(vib)   ...       0.50 
freq.      85.60  E(vib)   ...       0.48 
freq.     132.44  E(vib)   ...       0.42 
freq.     192.10  E(vib)   ...       0.36 
freq.     223.85  E(vib)   ...       0.33 
freq.     247.03  E(vib)   ...       0.31 
freq.     309.30  E(vib)   ...       0.26 
freq.     353.87  E(vib)   ...       0.22 
freq.     389.29  E(vib)   ...       0.20 
freq.     434.61  E(vib)   ...       0.17 
freq.     519.31  E(vib)   ...       0.13 
freq.     533.48  E(vib)   ...       0.13 
freq.     544.91  E(vib)   ...       0.12 
freq.     583.71  E(vib)   ...       0.11 
freq.     591.11  E(vib)   ...       0.10 
freq.     649.68  E(vib)   ...       0.08 
freq.     774.56  E(vib)   ...       0.05 
freq.     844.61  E(vib)   ...       0.04 
freq.     875.70  E(vib)   ...       0.04 
freq.     973.43  E(vib)   ...       0.03 
freq.    1042.63  E(vib)   ...       0.02 
freq.    1098.91  E(vib)   ...       0.02 
freq.    1133.10  E(vib)   ...       0.01 
freq.    1140.37  E(vib)   ...       0.01 
freq.    1170.91  E(vib)   ...       0.01 
freq.    1181.00  E(vib)   ...       0.01 
freq.    1201.60  E(vib)   ...       0.01 
freq.    1287.67  E(vib)   ...       0.01 
freq.    1294.89  E(vib)   ...       0.01 
freq.    1308.13  E(vib)   ...       0.01 
freq.    1373.27  E(vib)   ...       0.01 
freq.    1421.17  E(vib)   ...       0.00 
freq.    1452.14  E(vib)   ...       0.00 
freq.    1501.30  E(vib)   ...       0.00 
freq.    3068.05  E(vib)   ...       0.00 
freq.    3088.77  E(vib)   ...       0.00 
freq.    3124.37  E(vib)   ...       0.00 

------------
INNER ENERGY
------------

The inner energy is: U= E(el) + E(ZPE) + E(vib) + E(rot) + E(trans)
    E(el)   - is the total energy from the electronic structure calculation
              = E(kin-el) + E(nuc-el) + E(el-el) + E(nuc-nuc)
    E(ZPE)  - the the zero temperature vibrational energy from the frequency calculation
    E(vib)  - the the finite temperature correction to E(ZPE) due to population
              of excited vibrational states
    E(rot)  - is the rotational thermal energy
    E(trans)- is the translational thermal energy

Summary of contributions to the inner energy U:
Electronic energy                ...   -928.34524717 Eh
Zero point energy                ...      0.08263284 Eh      51.85 kcal/mol
Thermal vibrational correction   ...      0.00848649 Eh       5.33 kcal/mol
Thermal rotational correction    ...      0.00141627 Eh       0.89 kcal/mol
Thermal translational correction ...      0.00141627 Eh       0.89 kcal/mol
-----------------------------------------------------------------------
Total thermal energy                   -928.25129530 Eh


Summary of corrections to the electronic energy:
(perhaps to be used in another calculation)
Total thermal correction                  0.01131904 Eh       7.10 kcal/mol
Non-thermal (ZPE) correction              0.08263284 Eh      51.85 kcal/mol
-----------------------------------------------------------------------
Total correction                          0.09395187 Eh      58.96 kcal/mol


--------
ENTHALPY
--------

The enthalpy is H = U + kB*T
                kB is Boltzmann's constant
Total thermal energy              ...   -928.25129530 Eh 
Thermal Enthalpy correction       ...      0.00094421 Eh       0.59 kcal/mol
-----------------------------------------------------------------------
Total Enthalpy                    ...   -928.25035109 Eh


Note: Only C1 symmetry has been detected, increase convergence thresholds 
      if your molecule has a higher symmetry. Symmetry factor of 1.0 is   
      used for the rotational entropy correction. 
 

Note: Rotational entropy computed according to Herzberg 
Infrared and Raman Spectra, Chapter V,1, Van Nostrand Reinhold, 1945 
Point Group:  C1, Symmetry Number:   1  
Rotational constants in cm-1:     0.063055     0.014954     0.014095 

Vibrational entropy computed according to the QRRHO of S. Grimme
Chem.Eur.J. 2012 18 9955 using a reference frequency of 100.0 cm-1


-------
ENTROPY
-------

The entropy contributions are T*S = T*(S(el)+S(vib)+S(rot)+S(trans))
     S(el)   - electronic entropy
     S(vib)  - vibrational entropy
     S(rot)  - rotational entropy
     S(trans)- translational entropy
The entropies will be listed as multiplied by the temperature to get
units of energy

Electronic entropy                ...      0.00000000 Eh      0.00 kcal/mol
Vibrational entropy               ...      0.01546882 Eh      9.71 kcal/mol
Rotational entropy                ...      0.01481164 Eh      9.29 kcal/mol
Translational entropy             ...      0.01985330 Eh     12.46 kcal/mol
-----------------------------------------------------------------------
Final entropy term                ...      0.05013377 Eh     31.46 kcal/mol

In case the symmetry of your molecule has not been determined correctly
or in case you have a reason to use a different symmetry number we print 
out the resulting rotational entropy values for sn=1,12:

 non-linear molecules -----------------------------------
|  sn= 1 | S(rot)=       0.01481164 Eh      9.29 kcal/mol|
|  sn= 2 | S(rot)=       0.01415719 Eh      8.88 kcal/mol|
|  sn= 3 | S(rot)=       0.01377435 Eh      8.64 kcal/mol|
|  sn= 4 | S(rot)=       0.01350273 Eh      8.47 kcal/mol|
|  sn= 5 | S(rot)=       0.01329204 Eh      8.34 kcal/mol|
|  sn= 6 | S(rot)=       0.01311990 Eh      8.23 kcal/mol|
|  sn= 7 | S(rot)=       0.01297435 Eh      8.14 kcal/mol|
|  sn= 8 | S(rot)=       0.01284827 Eh      8.06 kcal/mol|
|  sn= 9 | S(rot)=       0.01273707 Eh      7.99 kcal/mol|
|  sn=10 | S(rot)=       0.01263759 Eh      7.93 kcal/mol|
|  sn=11 | S(rot)=       0.01254760 Eh      7.87 kcal/mol|
|  sn=12 | S(rot)=       0.01246544 Eh      7.82 kcal/mol|
 linear molecules ---------------------------------------
|  Dinfh | S(rot)=       0.00934983 Eh      5.87 kcal/mol|
|  Cinfv | S(rot)=       0.01000429 Eh      6.28 kcal/mol|
 --------------------------------------------------------


-------------------
GIBBS FREE ENERGY
-------------------

The Gibbs free energy is G = H - T*S

Total enthalpy                    ...   -928.25035109 Eh 
Total entropy correction          ...     -0.05013377 Eh    -31.46 kcal/mol
-----------------------------------------------------------------------
Final Gibbs free energy         ...   -928.30048486 Eh

For completeness - the Gibbs free energy minus the electronic energy
G-E(el)                           ...      0.04476231 Eh     28.09 kcal/mol


Maximum memory used throughout the entire PROP-calculation: 139.2 MB

--------------------------------
SUGGESTED CITATIONS FOR THIS RUN
--------------------------------

Below you find a list of papers that are relevant to this ORCA run
We neither can nor want to force you to cite these papers, but we appreciate if you do
You receive ORCA, which is the product of decades of hard work by many enthusiastic individuals, for free
The only thing we kindly ask in return is that you cite our papers,
We deeply appreciate it, if you show your appreciation for ORCA by not just citing the generic ORCA reference.

Please note that relegating all ORCA citations to the supporting information does *not* help us.
SI sections are not indexed - citations you put there will not count into any citation statistics
But we need these citations in order to attract the funding resources that allow us to do what we are doing

Therefore, if you are a happy ORCA user, please consider citing a few of the papers listed below in the main body of your paper

In addition to the list printed below, the program has created the file TFTFE_C1.bibtex that contains the list in bibtex format
You can import this file easily into all common literature databanks and citation aid programs


List of essential papers. We consider these as the minimum necessary citations

  1. Neese, F.
     Software update: the ORCA program system, version 6.0
     WIRES Comput. Molec. Sci. 2025 15(1), e70019
     doi.org/10.1002/wcms.7019

List of papers to cite with high priority. The work reported in these papers was absolutely
necessary for this run to complete.
Our perspective: the developers of density functionals and basis sets usually get cited in chemistry papers
Good! But without the algorithms to do something with them, the functionals or basis sets would not do anything.
Hence, in our opinion, the algorithm design and method developments papers are equally worthy of getting cited

  1. Neese, F.
     An improvement of the resolution of the identity approximation for the formation of the Coulomb matrix
     J. Comp. Chem. 2003 24(14), 1740-1747
     doi.org/10.1002/jcc.10318
  2. Neese, F.; Wennmohs, F.; Hansen, A.; Becker, U.
     Efficient, approximate and parallel Hartree-Fock and hybrid DFT calculations. A 'chain-of-spheres' algorithm for the Hartree-Fock exchange
     Chem. Phys. 2009 356(1-3), 98-109
     doi.org/10.1016/j.chemphys.2008.10.036
  3. Bykov, D.; Petrenko, T.; Izsak, R.; Kossmann, S.; Becker, U.; Valeev, E.; Neese, F.
     Efficient implementation of the analytic second derivatives of Hartree-Fock and hybrid DFT energies: a detailed analysis of different approximations
     Molec. Phys. 2015 113 , 1961-1977
     doi.org/10.1080/00268976.2015.1025114
  4. Helmich-Paris, B.; de Souza, B.; Neese, F.; Izsák, R.
     An improved chain of spheres for exchange algorithm
     J. Chem. Phys. 2021 155(10), 104109
     doi.org/10.1063/5.0058766
  5. Neese, F.
     The SHARK Integral Generation and Digestion System
     J. Comp. Chem. 2022 44(3), 381
     doi.org/10.1002/jcc.26942

List of suggested additional citations. These are papers that are important in the 'surrounding' of 
of this run, or papers that preceded the highly important papers. If you like your results we are grateful for a citation.

  1. Izsak, R.; Neese, F.
     An overlap fitted chain of spheres exchange method
     J. Chem. Phys. 2011 135 , 144105
     doi.org/10.1063/1.3646921
  2. Izsak, R.; Hansen, A.; Neese, F.
     The resolution of identity and chain of spheres approximations for the LPNO-CCSD singles Fock term
     Molec. Phys. 2012 110 , 2413-2417
     doi.org/10.1080/00268976.2012.687466
  3. Neese, F.
     The ORCA program system
     WIRES Comput. Molec. Sci. 2012 2(1), 73-78
     doi.org/10.1002/wcms.81
  4. Izsak, R.; Neese, F.; Klopper, W.
     Robust fitting techniques in the chain of spheres approximation to the Fock exchange: The role of the complementary space
     J. Chem. Phys. 2013 139 , 
     doi.org/10.1063/1.4819264
  5. Neese, F.
     Software update: the ORCA program system, version 4.0
     WIRES Comput. Molec. Sci. 2018 8(1), 1-6
     doi.org/10.1002/wcms.1327
  6. Neese, F.; Wennmohs, F.; Becker, U.; Riplinger, C.
     The ORCA quantum chemistry program package
     J. Chem. Phys. 2020 152(22), 224108
     doi.org/10.1063/5.0004608
  7. Neese, F.
     Software update: The ORCA program system—Version 5.0
     WIRES Comput. Molec. Sci. 2022 12(1), e1606
     doi.org/10.1002/wcms.1606

List of optional additional citations

  1. Neese, F.
     Approximate second-order SCF convergence for spin unrestricted wavefunctions
     Chem. Phys. Lett. 2000 325(1-3), 93-98
     doi.org/10.1016/s0009-2614(00)00662-x

Timings for individual modules:

Sum of individual times          ...     4943.508 sec (=  82.392 min)
Startup calculation              ...       95.954 sec (=   1.599 min)   1.9 %
SCF iterations                   ...     1959.464 sec (=  32.658 min)  39.6 %
Property integrals               ...      539.067 sec (=   8.984 min)  10.9 %
SCF Response                     ...      259.231 sec (=   4.321 min)   5.2 %
Property calculations            ...      812.126 sec (=  13.535 min)  16.4 %
SCF Gradient evaluation          ...     1277.598 sec (=  21.293 min)  25.8 %
Geometry relaxation              ...        0.068 sec (=   0.001 min)   0.0 %
                             ****ORCA TERMINATED NORMALLY****
TOTAL RUN TIME: 0 days 1 hours 22 minutes 24 seconds 842 msec
