
                                 *****************
                                 * O   R   C   A *
                                 *****************

                                            #,                                       
                                            ###                                      
                                            ####                                     
                                            #####                                    
                                            ######                                   
                                           ########,                                 
                                     ,,################,,,,,                         
                               ,,#################################,,                 
                          ,,##########################################,,             
                       ,#########################################, ''#####,          
                    ,#############################################,,   '####,        
                  ,##################################################,,,,####,       
                ,###########''''           ''''###############################       
              ,#####''   ,,,,##########,,,,          '''####'''          '####       
            ,##' ,,,,###########################,,,                        '##       
           ' ,,###''''                  '''############,,,                           
         ,,##''                                '''############,,,,        ,,,,,,###''
      ,#''                                            '''#######################'''  
     '                                                          ''''####''''         
             ,#######,   #######,   ,#######,      ##                                
            ,#'     '#,  ##    ##  ,#'     '#,    #''#        ,####,    ,#,          
            ##       ##  ##   ,#'  ##            #'  '#       #'       ,# #          
            ##       ##  #######   ##           ,######,      #####,      #          
            '#,     ,#'  ##    ##  '#,     ,#' ,#      #,     #,   #      #          
             '#######'   ##     ##  '#######'  #'      '#     '####' #    #          



                #########################################################
                #                        -***-                          #
                #          Department of theory and spectroscopy        #
                #                                                       #
                #                      Frank Neese                      #
                #                                                       #
                #     Directorship, Architecture, Infrastructure        #
                #                    SHARK, DRIVERS                     #
                #        Core code/Algorithms in most modules           #
                #                                                       #
                #        Max Planck Institute fuer Kohlenforschung      #
                #                Kaiser Wilhelm Platz 1                 #
                #                 D-45470 Muelheim/Ruhr                 #
                #                      Germany                          #
                #                                                       #
                #                  All rights reserved                  #
                #                        -***-                          #
                #########################################################


                         Program Version 6.1.1  -  RELEASE   -
                                (GIT: $487d211c$)
                          ($2025-11-21 10:33:24 +0100$)


 With contributions from (in alphabetic order):
[Max-Planck-Institut fuer Kohlenforschung]                               
  Daniel Aravena         : Magnetic Suceptibility                        
  Michael Atanasov       : Ab Initio Ligand Field Theory (pilot matlab implementation)
  Alexander A. Auer      : GIAO ZORA, VPT2 properties, NMR spectrum      
  Ute Becker             : All parallelization in ORCA, NUMFREQ, NUMCALC 
  Giovanni Bistoni       : ED, misc. LED, open-shell LED, HFLD           
  Dmytro Bykov           : pre 5.0 version of the SCF Hessian            
  Marcos Casanova-Páez   : Triplet and SCS-CIS(D). UHF-(DLPNO)-IP/EA/STEOM-CCSD. UHF-CVS-IP/STEOM-CCSD   
  Vijay G. Chilkuri      : MRCI spin determinant printing, contributions to CSF-ICE 
  Pauline Colinet        : FMM embedding                                 
  Dipayan Datta          : RHF DLPNO-CCSD density                        
  Achintya Kumar Dutta   : EOM-CC, STEOM-CC                              
  Nicolas Foglia         : Exact transition moments, OPA infrastructure, MCD improvements    
  Dmitry Ganyushin       : Spin-Orbit,Spin-Spin,Magnetic field MRCI      
  Miquel Garcia-Rates    : C-PCM and meta-GGA Hessian, CCSD/C-PCM, Gaussian charge scheme 
  Tiago L. C. Gouveia    : GS-ROHF, GS-ROCIS                             
  Yang Guo               : DLPNO-NEVPT2, F12-NEVPT2, CIM, IAO-localization        
  Andreas Hansen         : Spin unrestricted coupled pair/coupled cluster methods 
  Ingolf Harden          : AUTO-CI MPn and infrastructure                
  Benjamin Helmich-Paris : MC-RPA, TRAH-(SCF,CASSCF), AVAS, COSX integrals, SCF dyn. polar., MC-PDFT, srDFT 
  Lee Huntington         : MR-EOM, pCC                                   
  Robert Izsak           : Overlap fitted RIJCOSX, COSX-SCS-MP3, EOM     
  Riya Kayal             : Wick's Theorem for AUTO-CI, AUTO-CI UHF-CCSDT 
  Emily Kempfer          : AUTO-CI RHF CISDT and CCSDT, approximate NEVPT4
  Christian Kollmar      : KDIIS, OOCD, Brueckner-CCSD(T), CCSD density, CASPT2, CASPT2-K, improved NEVPT2 
  Axel Koslowski         : Symmetry handling                             
  Simone Kossmann        : meta-GGA functionals, TD-DFT gradient, OOMP2, (MP2 Hessian; deprecated post 5.0) 
  Lucas Lang             : DCDCAS, Hyperfine gauge corrections, ICE-SOC+SSC
  Marvin Lechner         : AUTO-CI (C++ implementation), FIC-MRCC        
  Spencer Leger          : CASSCF response                               
  Dagmar Lenk            : GEPOL surface, SMD, ORCA-2-JSON               
  Dimitrios Liakos       : Extrapolation schemes; Compound Job, Property file
  Dimitrios Manganas     : Further ROCIS development; embedding schemes. LFT, Crystal Embedding 
  Dimitrios Pantazis     : SARC Basis sets                               
  Anastasios Papadopoulos: AUTO-CI, single reference methods and gradients 
  Taras Petrenko         : pre 6.0 DFT Hessian and TD-DFT gradient,  ECA, NRVS 
  Petra Pikulova         : Analytic Raman intensities                    
  Peter Pinski           : DLPNO-MP2, DLPNO-MP2 Gradient                 
  Shashank Vittal Rao    : ES-AILFT, MagRelax                            
  Christoph Reimann      : Effective Core Potentials                     
  Marius Retegan         : Local ZFS, SOC                                
  Christoph Riplinger    : Optimizer, TS searches, QM/MM, DLPNO-CCSD(T), (RO)-DLPNO pert. Triples 
  Michael Roemelt        : Original ROCIS implementation, recursive CI coupling coefficients
  Masaaki Saitow         : Open-shell DLPNO-CCSD energy and density      
  Barbara Sandhoefer     : DKH picture change effects                    
  Yorick L. A. Schmerwitz: GMF and freeze-and-release deltaSCF, NEB S-IDPP initial path                    
  Kantharuban Sivalingam : CASSCF convergence/infrastructure, NEVPT2, NEVPT3, NEVPT4(SD), FIC-MRCI and CEPA variants
  Bernardo de Souza      : ESD, SOC TD-DFT                               
  Georgi L. Stoychev     : AutoAux, RI-MP2 NMR, DLPNO-MP2 response, X2C  
  Van Anh Tran           : RI-MP2 g-tensors                              
  Willem Van den Heuvel  : Paramagnetic NMR                              
  Zikuan Wang            : NOTCH, Electric field optimization            
  Frank Wennmohs         : Technical directorship and infrastructure     
  Hang Xu                : AUTO-CI-Response properties                   
                                                                         
[FACCTs GmbH]                                                            
  Markus Bursch, Nicolas Foglia, Miquel Garcia-Rates, Ingolf Harden, Hagen Neugebauer, Anastasios Papadopoulos, 
  Christoph Riplinger, Bernardo de Souza, Georgi L. Stoychev                                                    
                                                                 
  APM, various basis sets, CI-OPT, improved COSX, DLPNO-Multilevel,           
  DOCKER, DRACO, updates on ESD, Fragmentator, GOAT, IRC, LR-CPCM, L-BFGS, MBIS, meta-GGA TD-DFT gradient, ML-optimized integration grids, 
  MM, NACMEs, nearIR, NEB, NEB-TS, NL-DFT gradient (VV10), 2- and 3-layer-ONIOM, interface openCOSMO-RS, QMMM,   
  Crystal-QMMM, RESP, rigid body optimization, SF, symmetry and pop. for TD-DFT, various functionals, SOLVATOR                                   
                                                                         
[Other institutions]                                                     
  V. Asgeirsson          : NEB                                           
  Christoph Bannwarth    : sTDA-DFT, sTD-DFT, PBEh-3c, B97-3c, D3        
  Giovanni Bistoni       : ETS/NOCV, ADLD/ADEX, COVALED                  
  Martin Brehm           : Molecular dynamics                            
  Ronald Cardenas        : ETS/NOCV                                      
  Martina Colucci        : COVALED                                       
  Sebastian Ehlert       : rSCAN, r2SCAN, r2SCAN-3c, D4, dhf basis sets  
  Marvin Friede          : D4 for Fr, Ra, Ac-Lr                          
  Lars Goerigk           : TD-DFT with DH, B97 family of functionals     
  Stefan Grimme          : VdW corrections, initial TS optimization, DFT functionals, gCP, sTDA/sTD-DF 
  Waldemar Hujo          : DFT-NL                                        
  H. Jonsson             : NEB                                           
  Holger Kruse           : gCP                                           
  Marcel Mueller         : wB97X-3c, vDZP basis set                      
  Hagen Neugebauer       : wr2SCAN, Native XTB                           
  Gianluca Regni         : ADLD/ADEX                                     
  Tobias Risthaus        : pre 6.0 range-separated hybrid DFT and stability analysis
  Lukas Wittmann         : regularized MP2, r2SCAN double-hybrids, wr2SCAN        
                                                                         
We gratefully acknowledge several colleagues who have allowed us to      
interface, adapt or use parts of their codes:                            
  Ed Valeev, F. Pavosevic, A. Kumar             : LibInt (2-el integral package), F12 methods 
  Garnet Chan, S. Sharma, J. Yang, R. Olivares  : DMRG                   
  Ulf Ekstrom                                   : XCFun DFT Library      
  Mihaly Kallay                                 : mrcc  (arbitrary order and MRCC methods)
  Frank Weinhold                                : gennbo (NPA and NBO analysis)           
  Simon Mueller                                 : openCOSMO-RS                            
  Christopher J. Cramer and Donald G. Truhlar   : smd solvation model                     
  S Lehtola, MJT Oliveira, MAL Marques          : LibXC Library                           
  Liviu Ungur et al                             : ANISO software                          


 Your calculation uses the libint2 library for the computation of 2-el integrals
 For citations please refer to: http://libint.valeyev.net

 Your ORCA version has been built with support for libXC version: 7.0.0
 For citations please refer to: https://libxc.gitlab.io

 This ORCA versions uses:
   CBLAS   interface :  Fast vector & matrix operations
   LAPACKE interface :  Fast linear algebra routines
   SCALAPACK package :  Parallel linear algebra routines
   Shared memory     :  Shared parallel matrices
   BLAS/LAPACK       :  OpenBLAS 0.3.29  USE64BITINT DYNAMIC_ARCH NO_AFFINITY Haswell SINGLE_THREADED
        Core in use  :  Haswell
   Copyright (c) 2011-2014, The OpenBLAS Project


  ***********************************
  * Starting time: Sat Feb 28 09:57:10 2026
  * Host name:     BOOK-RSHKJRETQU
  * Process ID:    1890474
  * Working dir.:  /home/aziel/a_limbo/IR_LAB_2027/data/HFE-347pcf2/B3LYP_aug-cc-pVTZ/ORCA_Files
  ***********************************

Warning: RI is on but no J-basis has been assigned. Assigning Def2/J (nothing to worry about!)
================================================================================

----- Orbital basis set information -----
Your calculation utilizes the basis: aug-cc-pVTZ 
    H, B-Ne : Obtained from the ccRepo (grant-hill.group.shef.ac.uk/ccrepo) Feb. 2017
              R. A. Kendall, T. H. Dunning, Jr., R. J. Harrison, J. Chem. Phys. 96, 6796 (1992)
         He : Obtained from the ccRepo (grant-hill.group.shef.ac.uk/ccrepo) Feb. 2017
              D. E. Woon, T. H. Dunning, Jr., J. Chem. Phys. 100, 2975 (1994)
  Li-Be, Na : Obtained from the ccRepo (grant-hill.group.shef.ac.uk/ccrepo) Feb. 2017
              B. P. Prascher, D. E. Woon, K. A. Peterson, T. H. Dunning, Jr., A. K. Wilson, Theor. Chem. Acc. 128, 69 (2011)
         Mg : Obtained from the Peterson Research Group Website (tyr0.chem.wsu.edu/~kipeters) Feb. 2017
              B. P. Prascher, D. E. Woon, K. A. Peterson, T. H. Dunning, Jr., A. K. Wilson, Theor. Chem. Acc. 128, 69 (2011)
      Al-Ar : Obtained from the ccRepo (grant-hill.group.shef.ac.uk/ccrepo) Feb. 2017
              D. E. Woon, T. H. Dunning, Jr., J. Chem. Phys. 98, 1358 (1993)
      Sc-Zn : Obtained from the ccRepo (grant-hill.group.shef.ac.uk/ccrepo) Feb. 2017
              N. B. Balabanov, K. A. Peterson, J. Chem. Phys. 123, 064107 (2005)
              N. B. Balabanov, K. A. Peterson, J. Chem. Phys. 125, 074110 (2006)
      Ga-Kr : Obtained from the ccRepo (grant-hill.group.shef.ac.uk/ccrepo) Feb. 2017
              A. K. Wilson, D. E. Woon, K. A. Peterson, T. H. Dunning, Jr., J. Chem. Phys. 110, 7667 (1999)
     Ag, Au : Obtained from the Peterson Research Group Website (tyr0.chem.wsu.edu/~kipeters) Feb. 2017
              K. A. Peterson, C. Puzzarini, Theor. Chem. Acc. 114, 283 (2005)

----- AuxJ basis set information -----
Your calculation utilizes the auxiliary basis: def2/J
   H-Rn: F. Weigend, Phys. Chem. Chem. Phys. 8, 1057 (2006).
   Fr-Lr: K. Eichkorn, F. Weigend, O. Treutler, R. Ahlrichs; Theor. Chem. Acc. 97, 119 (1997).

================================================================================
                                        WARNINGS
                       Please study these warnings very carefully!
================================================================================

WARNING: Old DensityContainer found on disk!
         Will remove this file - 
         If you want to keep old densities, please start your calculation with a different basename. 


WARNING: Geometry Optimization
  ===> : Switching off AutoStart
         For restart on a previous wavefunction, please use MOREAD

================================================================================
                                       INPUT FILE
================================================================================
NAME = HFE_347pcf2_gauche1.inp
|  1> # avogadro generated ORCA input file 
|  2> # Basic Mode
|  3> # 
|  4> ! B3LYP aug-cc-pVTZ OPT FREQ 
|  5> % FREQ TEMP 305, 320, 340 END
|  6> 
|  7> * xyz 0 1
|  8>    F        2.03360        0.95850       -1.19810
|  9>    F        1.40780        1.54460        0.81840
| 10>    F        3.14700       -0.57680        0.75040
| 11>    F        1.78880       -1.67110       -0.55230
| 12>    F       -2.75120        1.05380       -0.44060
| 13>    F       -3.13920       -0.46580        1.07550
| 14>    F       -2.38540       -1.04850       -0.89120
| 15>    O       -0.05490        0.42730       -0.50780
| 16>    C        1.30530        0.57550       -0.12160
| 17>    C       -0.88930        0.03820        0.57430
| 18>    C        1.84110       -0.72430        0.41630
| 19>    C       -2.30350       -0.11120        0.07660
| 20>    H       -0.85070        0.79020        1.36930
| 21>    H       -0.60420       -0.93450        0.98000
| 22>    H        1.34190       -1.10100        1.30910
| 23> *
| 24> 
| 25> 
| 26>                          ****END OF INPUT****
================================================================================

                       *****************************
                       * Geometry Optimization Run *
                       *****************************

Geometry optimization settings:
Update method            Update   .... BFGS
Choice of coordinates    CoordSys .... (2022) Redundant Internals
Initial Hessian          InHess   .... Almloef's Model
Max. no of cycles        MaxIter  .... 50

Convergence Tolerances:
Energy Change            TolE     ....  5.0000e-06 Eh
Max. Gradient            TolMAXG  ....  3.0000e-04 Eh/bohr
RMS Gradient             TolRMSG  ....  1.0000e-04 Eh/bohr
Max. Displacement        TolMAXD  ....  4.0000e-03 bohr
RMS Displacement         TolRMSD  ....  2.0000e-03 bohr
Strict Convergence                .... False

------------------------------------------------------------------------------
                        ORCA OPTIMIZATION COORDINATE SETUP
------------------------------------------------------------------------------

The optimization will be done in redundant internal coordinates (2022)
Making redundant internal coordinates   ...  (2022 redundants) done
Evaluating the initial hessian          ...  (Almloef) done
Evaluating the coordinates              ...  done
Calculating the B-matrix                .... done
Calculating the G-matrix                .... done
The number of degrees of freedom        ....   57

    -----------------------------------------------------------------
                    Redundant Internal Coordinates


    -----------------------------------------------------------------
         Definition                    Initial Value    Approx d2E/dq
    -----------------------------------------------------------------
      1. B(C   8,F   1)                  1.3540         0.593519   
      2. B(C   8,O   7)                  1.4217         0.498064   
      3. B(C   8,F   0)                  1.3550         0.591349   
      4. B(C   9,O   7)                  1.4208         0.499802   
      5. B(C  10,F   3)                  1.3555         0.590237   
      6. B(C  10,C   8)                  1.5053         0.409073   
      7. B(C  10,F   2)                  1.3560         0.589116   
      8. B(C  11,F   6)                  1.3498         0.602772   
      9. B(C  11,F   5)                  1.3498         0.602722   
     10. B(C  11,C   9)                  1.5066         0.407038   
     11. B(C  11,F   4)                  1.3510         0.600088   
     12. B(H  12,C   9)                  1.0950         0.353550   
     13. B(H  13,C   9)                  1.0918         0.357731   
     14. B(H  14,C  10)                  1.0900         0.360042   
     15. A(C   8,O   7,C   9)          112.5529         0.396621   
     16. A(F   1,C   8,C  10)          110.0601         0.395702   
     17. A(F   1,C   8,O   7)          109.6106         0.407036   
     18. A(O   7,C   8,C  10)          110.3408         0.385424   
     19. A(F   0,C   8,C  10)          109.6731         0.395448   
     20. A(F   0,C   8,F   1)          107.9727         0.417791   
     21. A(F   0,C   8,O   7)          109.1410         0.406773   
     22. A(H  12,C   9,H  13)          109.4422         0.289702   
     23. A(C  11,C   9,H  13)          106.2311         0.328574   
     24. A(O   7,C   9,H  13)          111.9409         0.337905   
     25. A(C  11,C   9,H  12)          109.9391         0.327938   
     26. A(O   7,C   9,H  12)          110.1320         0.337243   
     27. A(O   7,C   9,C  11)          109.0757         0.385323   
     28. A(F   3,C  10,H  14)          109.0393         0.346384   
     29. A(F   2,C  10,H  14)          106.0711         0.346274   
     30. A(F   2,C  10,F   3)          106.8099         0.417097   
     31. A(F   3,C  10,C   8)          109.5154         0.395317   
     32. A(C   8,C  10,H  14)          115.3455         0.329195   
     33. A(F   2,C  10,C   8)          109.6887         0.395186   
     34. A(F   4,C  11,C   9)          110.6102         0.396120   
     35. A(F   5,C  11,F   6)          108.0967         0.420370   
     36. A(F   4,C  11,F   6)          107.7110         0.420042   
     37. A(F   4,C  11,F   5)          107.7389         0.420035   
     38. A(F   6,C  11,C   9)          111.2641         0.396430   
     39. A(F   5,C  11,C   9)          111.2680         0.396425   
     40. D(F   1,C   8,O   7,C   9)    -61.3572         0.019607   
     41. D(F   0,C   8,O   7,C   9)   -179.4173         0.019607   
     42. D(C  10,C   8,O   7,C   9)     60.0038         0.019607   
     43. D(H  13,C   9,O   7,C   8)    -62.0724         0.019748   
     44. D(H  12,C   9,O   7,C   8)     59.9242         0.019748   
     45. D(C  11,C   9,O   7,C   8)   -179.3399         0.019748   
     46. D(F   2,C  10,C   8,F   0)     58.2858         0.013258   
     47. D(F   3,C  10,C   8,O   7)     61.6286         0.013258   
     48. D(F   3,C  10,C   8,F   1)   -177.2779         0.013258   
     49. D(F   3,C  10,C   8,F   0)    -58.6311         0.013258   
     50. D(F   2,C  10,C   8,O   7)    178.5455         0.013258   
     51. D(F   2,C  10,C   8,F   1)    -60.3609         0.013258   
     52. D(F   4,C  11,C   9,H  13)    179.6130         0.013130   
     53. D(F   4,C  11,C   9,H  12)     61.2936         0.013130   
     54. D(F   4,C  11,C   9,O   7)    -59.5604         0.013130   
     55. D(F   5,C  11,C   9,H  13)     59.8979         0.013130   
     56. D(F   5,C  11,C   9,H  12)    -58.4215         0.013130   
     57. D(F   5,C  11,C   9,O   7)   -179.2756         0.013130   
    -----------------------------------------------------------------

Number of atoms                         .... 15
Number of degrees of freedom            .... 57


         *************************************************************
         *                GEOMETRY OPTIMIZATION CYCLE   1            *
         *************************************************************
---------------------------------
CARTESIAN COORDINATES (ANGSTROEM)
---------------------------------
  F      2.033600    0.958500   -1.198100
  F      1.407800    1.544600    0.818400
  F      3.147000   -0.576800    0.750400
  F      1.788800   -1.671100   -0.552300
  F     -2.751200    1.053800   -0.440600
  F     -3.139200   -0.465800    1.075500
  F     -2.385400   -1.048500   -0.891200
  O     -0.054900    0.427300   -0.507800
  C      1.305300    0.575500   -0.121600
  C     -0.889300    0.038200    0.574300
  C      1.841100   -0.724300    0.416300
  C     -2.303500   -0.111200    0.076600
  H     -0.850700    0.790200    1.369300
  H     -0.604200   -0.934500    0.980000
  H      1.341900   -1.101000    1.309100

----------------------------
CARTESIAN COORDINATES (A.U.)
----------------------------
  NO LB      ZA    FRAG     MASS         X           Y           Z
   0 F     9.0000    0    18.998    3.842947    1.811302   -2.264081
   1 F     9.0000    0    18.998    2.660356    2.918871    1.546552
   2 F     9.0000    0    18.998    5.946968   -1.089994    1.418050
   3 F     9.0000    0    18.998    3.380342   -3.157921   -1.043696
   4 F     9.0000    0    18.998   -5.199015    1.991393   -0.832613
   5 F     9.0000    0    18.998   -5.932228   -0.880234    2.032400
   6 F     9.0000    0    18.998   -4.507753   -1.981378   -1.684124
   7 O     8.0000    0    15.999   -0.103746    0.807480   -0.959603
   8 C     6.0000    0    12.011    2.466660    1.087537   -0.229791
   9 C     6.0000    0    12.011   -1.680533    0.072188    1.085270
  10 C     6.0000    0    12.011    3.479175   -1.368729    0.786693
  11 C     6.0000    0    12.011   -4.352984   -0.210138    0.144753
  12 H     1.0000    0     1.008   -1.607590    1.493262    2.587602
  13 H     1.0000    0     1.008   -1.141773   -1.765949    1.851932
  14 H     1.0000    0     1.008    2.535823   -2.080588    2.473840

--------------------------------
INTERNAL COORDINATES (ANGSTROEM)
--------------------------------
 F      0   0   0     0.000000000000     0.00000000     0.00000000
 F      1   0   0     2.191212244398     0.00000000     0.00000000
 F      1   2   0     2.719091373970    66.95269226     0.00000000
 F      3   1   2     2.176976577733    66.39338032   114.53912106
 F      2   1   3     4.373013450700    88.66211289   235.33513761
 F      5   2   1     2.181349896280    92.70835785   120.39000474
 F      5   2   1     2.180943669607    90.46710442    60.27552537
 O      1   2   3     2.262856553120    61.21437214   105.48298545
 C      2   1   3     1.353979711813    36.02899012   290.80489025
 C      8   1   2     1.420761267772   146.99999123   325.10918997
 C      4   3   1     1.355489391327    36.60314589   290.12731330
 C      7   5   2     1.349768772790    36.16333255    55.34989779
 H     10   8   1     1.094997242006   110.13203910    59.31889680
 H     10   8   1     1.091796588198   111.94085263   297.32238297
 H     11   4   3     1.090043746829   109.03927371   245.78398568

---------------------------
INTERNAL COORDINATES (A.U.)
---------------------------
 F      0   0   0     0.000000000000     0.00000000     0.00000000
 F      1   0   0     4.140791043207     0.00000000     0.00000000
 F      1   2   0     5.138338029912    66.95269226     0.00000000
 F      3   1   2     4.113889531877    66.39338032   114.53912106
 F      2   1   3     8.263797801776    88.66211289   235.33513761
 F      5   2   1     4.122153906226    92.70835785   120.39000474
 F      5   2   1     4.121386249067    90.46710442    60.27552537
 O      1   2   3     4.276179165747    61.21437214   105.48298545
 C      2   1   3     2.558650846211    36.02899012   290.80489025
 C      8   1   2     2.684849697771   146.99999123   325.10918997
 C      4   3   1     2.561503727044    36.60314589   290.12731330
 C      7   5   2     2.550693324693    36.16333255    55.34989779
 H     10   8   1     2.069244904790   110.13203910    59.31889680
 H     10   8   1     2.063196545643   111.94085263   297.32238297
 H     11   4   3     2.059884155499   109.03927371   245.78398568

---------------------
BASIS SET INFORMATION
---------------------
There are 4 groups of distinct atoms

 Group   1 Type F   : 19s6p3d2f contracted to 5s4p3d2f pattern {88111/3111/111/11}
 Group   2 Type O   : 19s6p3d2f contracted to 5s4p3d2f pattern {88111/3111/111/11}
 Group   3 Type C   : 19s6p3d2f contracted to 5s4p3d2f pattern {88111/3111/111/11}
 Group   4 Type H   : 6s3p2d contracted to 4s3p2d pattern {3111/111/11}

Atom   0F    basis set group =>   1
Atom   1F    basis set group =>   1
Atom   2F    basis set group =>   1
Atom   3F    basis set group =>   1
Atom   4F    basis set group =>   1
Atom   5F    basis set group =>   1
Atom   6F    basis set group =>   1
Atom   7O    basis set group =>   2
Atom   8C    basis set group =>   3
Atom   9C    basis set group =>   3
Atom  10C    basis set group =>   3
Atom  11C    basis set group =>   3
Atom  12H    basis set group =>   4
Atom  13H    basis set group =>   4
Atom  14H    basis set group =>   4
---------------------------------
AUXILIARY/J BASIS SET INFORMATION
---------------------------------
There are 4 groups of distinct atoms

 Group   1 Type F   : 12s5p4d2f1g contracted to 6s4p3d1f1g pattern {711111/2111/211/2/1}
 Group   2 Type O   : 12s5p4d2f1g contracted to 6s4p3d1f1g pattern {711111/2111/211/2/1}
 Group   3 Type C   : 12s5p4d2f1g contracted to 6s4p3d1f1g pattern {711111/2111/211/2/1}
 Group   4 Type H   : 5s2p1d contracted to 3s1p1d pattern {311/2/1}

Atom   0F    basis set group =>   1
Atom   1F    basis set group =>   1
Atom   2F    basis set group =>   1
Atom   3F    basis set group =>   1
Atom   4F    basis set group =>   1
Atom   5F    basis set group =>   1
Atom   6F    basis set group =>   1
Atom   7O    basis set group =>   2
Atom   8C    basis set group =>   3
Atom   9C    basis set group =>   3
Atom  10C    basis set group =>   3
Atom  11C    basis set group =>   3
Atom  12H    basis set group =>   4
Atom  13H    basis set group =>   4
Atom  14H    basis set group =>   4
------------------------------------------------------------------------------
                             ORCA STARTUP CALCULATIONS
                           -- RI-GTO INTEGRALS CHOSEN --
------------------------------------------------------------------------------
------------------------------------------------------------------------------
                   ___                                                        
                  /   \      - P O W E R E D   B Y -                         
                 /     \                                                     
                 |  |  |   _    _      __       _____    __    __             
                 |  |  |  | |  | |    /  \     |  _  \  |  |  /  |          
                  \  \/   | |  | |   /    \    | | | |  |  | /  /          
                 / \  \   | |__| |  /  /\  \   | |_| |  |  |/  /          
                |  |  |   |  __  | /  /__\  \  |    /   |      \           
                |  |  |   | |  | | |   __   |  |    \   |  |\   \          
                \     /   | |  | | |  |  |  |  | |\  \  |  | \   \       
                 \___/    |_|  |_| |__|  |__|  |_| \__\ |__|  \__/        
                                                                              
                      - O R C A' S   B I G   F R I E N D -                    
                                      &                                       
                       - I N T E G R A L  F E E D E R -                       
                                                                              
 v1 FN, 2020, v2 2021, v3 2022-2024                                           
------------------------------------------------------------------------------


----------------------
SHARK INTEGRAL PACKAGE
----------------------

Number of atoms                             ...     15
Number of basis functions                   ...    693
Number of shells                            ...    267
Maximum angular momentum                    ...      3
Integral batch strategy                     ... SHARK/LIBINT Hybrid
RI-J (if used) integral strategy            ... SPLIT-RIJ (Revised 2003 algorithm where possible)
Printlevel                                  ...      1
Contraction scheme used                     ... PARTIAL GENERAL contraction
Prescreening option                         ... SCHWARTZ
   Thresh                                   ... 2.500e-11
   Tcut                                     ... 2.500e-12
   Tpresel                                  ... 2.500e-12 
Coulomb Range Separation                    ... NOT USED
Exchange Range Separation                   ... NOT USED
Multipole approximations                    ... NOT USED
Finite Nucleus Model                        ... NOT USED
CABS basis                                  ... NOT available
Auxiliary Coulomb fitting basis             ... AVAILABLE
   # of basis functions in Aux-J            ...    621
   # of shells in Aux-J                     ...    195
   Maximum angular momentum in Aux-J        ...      4
Auxiliary J/K fitting basis                 ... NOT available
Auxiliary Correlation fitting basis         ... NOT available
Auxiliary 'external' fitting basis          ... NOT available

Checking pre-screening integrals            ... done (  0.0 sec) Dimension = 267
Save PGC pre-screening integrals            ... done (  0.0 sec) Dimension = 267
Calculate PGC overlap integrals             ... done (  0.0 sec) Dimension = 195
Calculating pre-screening integrals (ORCA)  ... done (  0.1 sec) Dimension = 195
Shell pair information
Shell pair cut-off parameter TPreSel        ...   2.5e-12
Total number of shell pairs                 ...     35778
Shell pairs after pre-screening             ...     26421
Total number of primitive shell pairs       ...     44298
Primitive shell pairs kept                  ...     30815
          la=0 lb=0:   5789 shell pairs
          la=1 lb=0:   6668 shell pairs
          la=1 lb=1:   1539 shell pairs
          la=2 lb=0:   4643 shell pairs
          la=2 lb=1:   2194 shell pairs
          la=2 lb=2:    810 shell pairs
          la=3 lb=0:   2429 shell pairs
          la=3 lb=1:   1224 shell pairs
          la=3 lb=2:    875 shell pairs
          la=3 lb=3:    250 shell pairs

Checking whether 4 symmetric matrices of dimension 693 fit in memory
:Max Core in MB      =   4096.00
 MB in use           =     32.05
 MB left             =   4063.95
 MB needed           =      7.34
 Data fit in memory  = YES
Calculating RI/J V-Matrix + Cholesky decomp.... done (  0.0 sec)
Calculating Nuclear repulsion               ... done (  0.0 sec) ENN=    847.814180921515 Eh

Diagonalization of the overlap matrix:
Smallest eigenvalue                        ... 1.046e-05
Time for diagonalization                   ...    0.034 sec
Threshold for overlap eigenvalues          ... 1.000e-07
Number of eigenvalues below threshold      ... 0
Time for construction of square roots      ...    0.022 sec
Total time needed                          ...    0.057 sec

-------------------
DFT GRID GENERATION
-------------------

General Integration Accuracy     IntAcc      ... 4.388
Radial Grid Type                 RadialGrid  ... OptM3 with GC (2021)
Angular Grid (max. ang.)         AngularGrid ... 4 (Lebedev-302)
Angular grid pruning method      GridPruning ... 4 (adaptive)
Weight generation scheme         WeightScheme... mBecke (2022)
Basis function cutoff            BFCut       ... 1.0000e-11
Integration weight cutoff        WCut        ... 1.0000e-14
Partially contracted basis set               ... off
Rotationally invariant grid construction     ... off
Angular grids for H and He will be reduced by one unit
Diffuse basis detected: some atoms will have their outermost
                        angular grid increased by 1.

Total number of grid points                  ...    86521
Total number of batches                      ...     1358
Average number of points per batch           ...       63
Average number of grid points per atom       ...     5768

---------------------
SHARK GRID GENERATION
---------------------

General Integration Accuracy     IntAcc      ... 4.388
Radial Grid Type                 RadialGrid  ... OptM3 with GC (2021)
Angular Grid (max. ang.)         AngularGrid ... 4 (Lebedev-302)
Angular grid pruning method      GridPruning ... 4 (adaptive)
Weight generation scheme         WeightScheme... mBecke (2022)
Basis function cutoff            BFCut       ... 1.0000e-11
Integration weight cutoff        WCut        ... 1.0000e-14
Partially contracted basis set               ... off
Rotationally invariant grid construction     ... off
Angular grids for H and He will be reduced by one unit
Diffuse basis detected: some atoms will have their outermost
                        angular grid increased by 1.
Steep s-basis detected: some atoms will have their radial
                        grid points doubled.

Total number of grid points                  ...   163748
Total number of batches                      ...     2568
Average number of points per batch           ...       63
Average number of grid points per atom       ...    10917

--------------------
COSX GRID GENERATION
--------------------

GRIDX 1
-------
General Integration Accuracy     IntAcc      ... 3.816
Radial Grid Type                 RadialGrid  ... OptM3 with GC (2021)
Angular Grid (max. ang.)         AngularGrid ... 1 (Lebedev-50)
Angular grid pruning method      GridPruning ... 4 (adaptive)
Weight generation scheme         WeightScheme... mBecke (2022)
Basis function cutoff            BFCut       ... 1.0000e-11
Integration weight cutoff        WCut        ... 1.0000e-14
Partially contracted basis set               ... on
Rotationally invariant grid construction     ... off
Angular grids for H and He will be reduced by one unit
Diffuse basis detected: some atoms will have their outermost
                        angular grid increased by 1.

Total number of grid points                  ...    10883
Total number of batches                      ...       92
Average number of points per batch           ...      118
Average number of grid points per atom       ...      726
UseSFitting                                  ... on

GRIDX 2
-------
General Integration Accuracy     IntAcc      ... 4.020
Radial Grid Type                 RadialGrid  ... OptM3 with GC (2021)
Angular Grid (max. ang.)         AngularGrid ... 2 (Lebedev-110)
Angular grid pruning method      GridPruning ... 4 (adaptive)
Weight generation scheme         WeightScheme... mBecke (2022)
Basis function cutoff            BFCut       ... 1.0000e-11
Integration weight cutoff        WCut        ... 1.0000e-14
Partially contracted basis set               ... on
Rotationally invariant grid construction     ... off
Angular grids for H and He will be reduced by one unit
Diffuse basis detected: some atoms will have their outermost
                        angular grid increased by 1.

Total number of grid points                  ...    28467
Total number of batches                      ...      230
Average number of points per batch           ...      123
Average number of grid points per atom       ...     1898
UseSFitting                                  ... on

GRIDX 3
-------
General Integration Accuracy     IntAcc      ... 4.338
Radial Grid Type                 RadialGrid  ... OptM3 with GC (2021)
Angular Grid (max. ang.)         AngularGrid ... 3 (Lebedev-194)
Angular grid pruning method      GridPruning ... 4 (adaptive)
Weight generation scheme         WeightScheme... mBecke (2022)
Basis function cutoff            BFCut       ... 1.0000e-11
Integration weight cutoff        WCut        ... 1.0000e-14
Partially contracted basis set               ... on
Rotationally invariant grid construction     ... off
Angular grids for H and He will be reduced by one unit
Diffuse basis detected: some atoms will have their outermost
                        angular grid increased by 1.

Total number of grid points                  ...    61921
Total number of batches                      ...      490
Average number of points per batch           ...      126
Average number of grid points per atom       ...     4128
UseSFitting                                  ... on
Grids setup in   3.7 sec
Initializing property integral containers    ... done (  0.0 sec)

SHARK setup successfully completed in   4.3 seconds

Maximum memory used throughout the entire STARTUP-calculation: 129.0 MB
-------------------------------------------------------------------------------
                                 ORCA GUESS
                   Start orbitals & Density for SCF / CASSCF
-------------------------------------------------------------------------------

------------
SCF SETTINGS
------------
Hamiltonian:
 Density Functional     Method          .... DFT(GTOs)
 Exchange Functional    Exchange        .... B88
   X-Alpha parameter    XAlpha          ....  0.666667
   Becke's b parameter  XBeta           ....  0.004200
 Correlation Functional Correlation     .... LYP
 LDA part of GGA corr.  LDAOpt          .... VWN-5
 Gradients option       PostSCFGGA      .... off
 Hybrid DFT is turned on
   Fraction HF Exchange ScalHFX         ....  0.200000
   Scaling of DF-GGA-X  ScalDFX         ....  0.720000
   Scaling of DF-GGA-C  ScalDFC         ....  0.810000
   Scaling of DF-LDA-C  ScalLDAC        ....  1.000000
   Perturbative correction              ....  0.000000
   NL short-range parameter             ....  4.800000
 RI-approximation to the Coulomb term is turned on
   Number of AuxJ basis functions       .... 621
   RIJ-COSX (HFX calculated with COS-X)).... on


General Settings:
 Integral files         IntName         .... HFE_347pcf2_gauche1
 Hartree-Fock type      HFTyp           .... RHF
 Total Charge           Charge          ....    0
 Multiplicity           Mult            ....    1
 Number of Electrons    NEL             ....   98
 Basis Dimension        Dim             ....  621
 Nuclear Repulsion      ENuc            ....    847.8141809215 Eh

Convergence Acceleration:
 AO-DIIS                CNVDIIS         .... on
   Start iteration      DIISMaxIt       ....    12
   Startup error        DIISStart       ....  0.200000
   # of expansion vecs  DIISMaxEq       ....     5
   Bias factor          DIISBfac        ....   1.050
   Max. coefficient     DIISMaxC        ....  10.000
 MO-DIIS                CNVKDIIS        .... off
 Trust-Rad. Augm. Hess. CNVTRAH         .... auto
   Auto Start mean grad. ratio tolernc. ....  1.125000
   Auto Start start iteration           ....    50
   Auto Start num. interpolation iter.  ....    10
   Max. Number of Micro iterations      ....    24
   Max. Number of Macro iterations      .... Maxiter - #DIIS iter
   Number of Davidson start vectors     ....     2
   Converg. threshold    (grad. norm)   ....   1.000e-05
   Grad. Scal. Fac. for Micro threshold ....   0.100
   Minimum threshold for Micro iter.    ....   1.000e-02
   NR start threshold (gradient norm)   ....   1.000e-04
   Initial trust radius                 ....   0.400
   Minimum AH scaling param. (alpha)    ....   1.000
   Maximum AH scaling param. (alpha)    .... 1000.000
   Quad. conv. algorithm                .... NR
   White noise on init. David. guess    .... on
   Maximum white noise                  ....   0.010
   Pseudo random numbers                .... off
   Inactive MOs                         .... canonical
   Orbital update algorithm             .... Taylor
   Preconditioner                       .... Diag
   Full preconditioner red. dimension   ....   250
 SOSCF                 CNVSOSCF           .... on
   Start iteration     SOSCFMaxIt         ....   150
   Startup grad/error  SOSCFStart         ....  0.003300
   Hessian update      SOSCFHessUp        .... L-BFGS
   Autom. constraints  SOSCFAutoConstrain .... off
 Level Shifting         CNVShift        .... on
   Level shift para.    LevelShift      ....    0.2500
   Turn off err/grad.   ShiftErr        ....    0.0010
 Zerner damping         CNVZerner       .... off
 Static damping         CNVDamp         .... on
   Fraction old density DampFac         ....    0.7000
   Max. Damping (<1)    DampMax         ....    0.9800
   Min. Damping (>=0)   DampMin         ....    0.0000
   Turn off err/grad.   DampErr         ....    0.1000

SCF Procedure:
 Maximum # iterations   MaxIter         ....   125
 SCF integral mode      SCFMode         .... Direct
   Integral package                     .... SHARK and LIBINT hybrid scheme
 Reset frequency        DirectResetFreq ....    20
 Integral Threshold     Thresh          ....  2.500e-11 Eh
 Primitive CutOff       TCut            ....  2.500e-12 Eh

Convergence Tolerance:
 Convergence Check Mode ConvCheckMode   .... Total+1el-Energy
 Convergence forced     ConvForced      .... 0
 Energy Change          TolE            ....  1.000e-08 Eh
 1-El. energy change                    ....  1.000e-05 Eh
 Orbital Gradient       TolG            ....  1.000e-05
 Orbital Rotation angle TolX            ....  1.000e-05
 DIIS Error             TolErr          ....  5.000e-07

------------------------------
INITIAL GUESS: MODEL POTENTIAL
------------------------------
Loading Hartree-Fock densities                     ... done
Calculating cut-offs                               ... done
Initializing the effective Hamiltonian             ... done
Setting up the integral package (SHARK)            ... done
Starting the Coulomb interaction                   ... done (   0.5 sec)
Making the grid                                    ... done (   0.2 sec)
Mapping shells                                     ... done
Starting the XC term evaluation                    ... done (   0.8 sec)
  promolecular density results
     # of electrons  =     98.000029399
     EX              =   -100.074764221
     EC              =     -3.644413402
     EX+EC           =   -103.719177623
Transforming the Hamiltonian                       ... done (   0.0 sec)
Diagonalizing the Hamiltonian                      ... done (   0.0 sec)
Back transforming the eigenvectors                 ... done (   0.0 sec)
Now organizing SCF variables                       ... done
                      ------------------
                      INITIAL GUESS DONE (   1.6 sec)
                      ------------------
             **** ENERGY FILE WAS UPDATED (HFE_347pcf2_gauche1.en.tmp) ****
Finished Guess after   1.8 sec
Maximum memory used throughout the entire GUESS-calculation: 91.2 MB

-------------------------------------------------------------------------------------------
                                      ORCA LEAN-SCF
                              memory conserving SCF solver
-------------------------------------------------------------------------------------------

----------------------------------------D-I-I-S--------------------------------------------
Iteration    Energy (Eh)           Delta-E    RMSDP     MaxDP     DIISErr   Damp  Time(sec)
-------------------------------------------------------------------------------------------
               ***  Starting incremental Fock matrix formation  ***
    1    -928.1244026016976250     0.00e+00  6.77e-04  3.43e-02  2.15e-01  0.700  23.8
    2    -928.2323434370283621    -1.08e-01  3.88e-04  2.37e-02  8.20e-02  0.700  10.4
                               ***Turning on AO-DIIS***
    3    -928.2681610056700947    -3.58e-02  1.95e-04  1.83e-02  2.56e-02  0.700  10.1
    4    -928.2923839907770116    -2.42e-02  4.54e-04  4.10e-02  1.28e-02  0.000   9.6
                              *** Initializing SOSCF ***
---------------------------------------S-O-S-C-F--------------------------------------
Iteration    Energy (Eh)           Delta-E    RMSDP     MaxDP     MaxGrad    Time(sec)
--------------------------------------------------------------------------------------
    5    -928.3481824795529747    -5.58e-02  4.25e-05  3.88e-03  2.47e-03    10.1
               *** Restarting incremental Fock matrix formation ***
    6    -928.3482461384274984    -6.37e-05  4.43e-05  2.98e-03  1.85e-04    23.0
    7    -928.3482455090733083     6.29e-07  9.10e-06  5.40e-04  1.96e-04    17.5
    8    -928.3482527188208451    -7.21e-06  7.33e-06  5.17e-04  2.71e-05    16.2
    9    -928.3482527878430801    -6.90e-08  1.03e-06  8.95e-05  2.19e-05    15.3
   10    -928.3482528697317093    -8.19e-08  1.84e-06  1.01e-04  9.27e-06    13.2
   11    -928.3482528633197717     6.41e-09  7.52e-07  5.36e-05  6.92e-06    14.4
                 **** Energy Check signals convergence ****

               *****************************************************
               *                     SUCCESS                       *
               *           SCF CONVERGED AFTER  11 CYCLES          *
               *****************************************************

Recomputing exchange energy using gridx3       ... done (   41.905 sec)
Old exchange energy                            :    -20.075098391 Eh
New exchange energy                            :    -20.075040864 Eh
Exchange energy change after final integration :      0.000057526 Eh
Total energy after final integration           :   -928.348195356 Eh
             **** ENERGY FILE WAS UPDATED (HFE_347pcf2_gauche1.en.tmp) ****

----------------
TOTAL SCF ENERGY
----------------

Total Energy       :       -928.34819535605425 Eh          -25261.63867 eV

Components:
Nuclear Repulsion  :        847.81418092151500 Eh           23070.19673 eV
Electronic Energy  :      -1776.16243380388846 Eh          -48331.83697 eV
One Electron Energy:      -2972.91934162537837 Eh          -80897.24802 eV
Two Electron Energy:       1196.75690782148990 Eh           32565.41106 eV

Virial components:
Potential Energy   :      -1852.07333191128646 Eh          -50397.47752 eV
Kinetic Energy     :        923.72513655523210 Eh           25135.83885 eV
Virial Ratio       :          2.00500479917442

DFT components:
N(Alpha)           :       49.000053080433 electrons
N(Beta)            :       49.000053080433 electrons
N(Total)           :       98.000106160865 electrons
E(X)               :      -79.985475941390 Eh       
E(C)               :       -4.261685040849 Eh       
E(XC)              :      -84.247160982239 Eh       

---------------
SCF CONVERGENCE
---------------

  Last Energy change         ...   -6.4119e-09  Tolerance :   1.0000e-08
  Last MAX-Density change    ...    5.3593e-05  Tolerance :   1.0000e-07
  Last RMS-Density change    ...    7.5165e-07  Tolerance :   5.0000e-09
  Last DIIS Error            ...    2.4660e-03  Tolerance :   5.0000e-07
  Last Orbital Gradient      ...    6.9230e-06  Tolerance :   1.0000e-05
  Last Orbital Rotation      ...    4.0417e-06  Tolerance :   1.0000e-05


----------------
ORBITAL ENERGIES
----------------

  NO   OCC          E(Eh)            E(eV) 
   0   2.0000     -24.745548      -673.3606 
   1   2.0000     -24.744481      -673.3315 
   2   2.0000     -24.740742      -673.2298 
   3   2.0000     -24.736680      -673.1193 
   4   2.0000     -24.734070      -673.0483 
   5   2.0000     -24.731728      -672.9845 
   6   2.0000     -24.728128      -672.8866 
   7   2.0000     -19.212588      -522.8011 
   8   2.0000     -10.453145      -284.4445 
   9   2.0000     -10.439695      -284.0785 
  10   2.0000     -10.381496      -282.4949 
  11   2.0000     -10.291289      -280.0402 
  12   2.0000      -1.335324       -36.3360 
  13   2.0000      -1.320607       -35.9355 
  14   2.0000      -1.292777       -35.1782 
  15   2.0000      -1.251911       -34.0662 
  16   2.0000      -1.251588       -34.0574 
  17   2.0000      -1.245984       -33.9049 
  18   2.0000      -1.236325       -33.6421 
  19   2.0000      -1.110904       -30.2292 
  20   2.0000      -0.834062       -22.6960 
  21   2.0000      -0.796577       -21.6760 
  22   2.0000      -0.712208       -19.3802 
  23   2.0000      -0.681434       -18.5427 
  24   2.0000      -0.635677       -17.2977 
  25   2.0000      -0.627636       -17.0788 
  26   2.0000      -0.624637       -16.9973 
  27   2.0000      -0.618820       -16.8389 
  28   2.0000      -0.604264       -16.4429 
  29   2.0000      -0.584163       -15.8959 
  30   2.0000      -0.577846       -15.7240 
  31   2.0000      -0.573436       -15.6040 
  32   2.0000      -0.519963       -14.1489 
  33   2.0000      -0.497246       -13.5308 
  34   2.0000      -0.493149       -13.4193 
  35   2.0000      -0.490701       -13.3527 
  36   2.0000      -0.480865       -13.0850 
  37   2.0000      -0.475474       -12.9383 
  38   2.0000      -0.463121       -12.6022 
  39   2.0000      -0.456335       -12.4175 
  40   2.0000      -0.454659       -12.3719 
  41   2.0000      -0.449149       -12.2220 
  42   2.0000      -0.441785       -12.0216 
  43   2.0000      -0.438472       -11.9314 
  44   2.0000      -0.435247       -11.8437 
  45   2.0000      -0.434076       -11.8118 
  46   2.0000      -0.415253       -11.2996 
  47   2.0000      -0.382267       -10.4020 
  48   2.0000      -0.347538        -9.4570 
  49   0.0000      -0.022951        -0.6245 
  50   0.0000      -0.000482        -0.0131 
  51   0.0000       0.006413         0.1745 
  52   0.0000       0.010827         0.2946 
  53   0.0000       0.027526         0.7490 
  54   0.0000       0.036635         0.9969 
  55   0.0000       0.043543         1.1849 
  56   0.0000       0.046894         1.2761 
  57   0.0000       0.057934         1.5765 
  58   0.0000       0.059458         1.6179 
  59   0.0000       0.063287         1.7221 
*Only the first 10 virtual orbitals were printed.

                    ********************************
                    * MULLIKEN POPULATION ANALYSIS *
                    ********************************

-----------------------
MULLIKEN ATOMIC CHARGES
-----------------------
   0 F :   -0.397904
   1 F :   -0.423983
   2 F :   -0.423657
   3 F :   -0.403397
   4 F :   -0.372777
   5 F :   -0.379456
   6 F :   -0.382087
   7 O :   -0.543275
   8 C :    1.195802
   9 C :   -0.189703
  10 C :    0.390215
  11 C :    1.143747
  12 H :    0.249824
  13 H :    0.239160
  14 H :    0.297489
Sum of atomic charges:    0.0000000

--------------------------------
MULLIKEN REDUCED ORBITAL CHARGES
--------------------------------
  0 F s       :     4.036882  s :     4.036882
      pz      :     1.618036  p :     5.316216
      px      :     1.793664
      py      :     1.904516
      dz2     :     0.009234  d :     0.040597
      dxz     :     0.007842
      dyz     :     0.012468
      dx2y2   :     0.006206
      dxy     :     0.004847
      f0      :     0.000776  f :     0.004208
      f+1     :     0.000776
      f-1     :     0.000649
      f+2     :     0.000918
      f-2     :     0.000660
      f+3     :     0.000224
      f-3     :     0.000205

  1 F s       :     4.024741  s :     4.024741
      pz      :     1.703693  p :     5.355291
      px      :     1.959242
      py      :     1.692355
      dz2     :     0.009931  d :     0.039749
      dxz     :     0.006659
      dyz     :     0.007395
      dx2y2   :     0.008538
      dxy     :     0.007226
      f0      :     0.000582  f :     0.004202
      f+1     :     0.000172
      f-1     :     0.001075
      f+2     :     0.000655
      f-2     :     0.000903
      f+3     :     0.000341
      f-3     :     0.000475

  2 F s       :     4.031598  s :     4.031598
      pz      :     1.923800  p :     5.350790
      px      :     1.475507
      py      :     1.951483
      dz2     :     0.004143  d :     0.037500
      dxz     :     0.010571
      dyz     :     0.002268
      dx2y2   :     0.007003
      dxy     :     0.013515
      f0      :     0.000327  f :     0.003769
      f+1     :     0.000572
      f-1     :     0.000073
      f+2     :     0.000678
      f-2     :     0.000301
      f+3     :     0.000611
      f-3     :     0.001207

  3 F s       :     4.018322  s :     4.018322
      pz      :     1.693061  p :     5.345324
      px      :     1.943560
      py      :     1.708704
      dz2     :     0.011085  d :     0.036000
      dxz     :     0.004740
      dyz     :     0.006931
      dx2y2   :     0.007696
      dxy     :     0.005548
      f0      :     0.000582  f :     0.003750
      f+1     :     0.000197
      f-1     :     0.001015
      f+2     :     0.000635
      f-2     :     0.000676
      f+3     :     0.000327
      f-3     :     0.000318

  4 F s       :     4.025908  s :     4.025908
      pz      :     1.855005  p :     5.307680
      px      :     1.890183
      py      :     1.562493
      dz2     :     0.004938  d :     0.035306
      dxz     :     0.005147
      dyz     :     0.007898
      dx2y2   :     0.007853
      dxy     :     0.009470
      f0      :     0.000277  f :     0.003883
      f+1     :     0.000116
      f-1     :     0.000735
      f+2     :     0.000592
      f-2     :     0.000602
      f+3     :     0.000594
      f-3     :     0.000966

  5 F s       :     4.024202  s :     4.024202
      pz      :     1.671289  p :     5.314366
      px      :     1.748510
      py      :     1.894567
      dz2     :     0.010354  d :     0.036999
      dxz     :     0.007143
      dyz     :     0.006345
      dx2y2   :     0.007797
      dxy     :     0.005358
      f0      :     0.000693  f :     0.003890
      f+1     :     0.000882
      f-1     :     0.000366
      f+2     :     0.000695
      f-2     :     0.000659
      f+3     :     0.000323
      f-3     :     0.000271

  6 F s       :     4.033743  s :     4.033743
      pz      :     1.672366  p :     5.308921
      px      :     1.946247
      py      :     1.690307
      dz2     :     0.007815  d :     0.035529
      dxz     :     0.008468
      dyz     :     0.007705
      dx2y2   :     0.004274
      dxy     :     0.007267
      f0      :     0.000579  f :     0.003894
      f+1     :     0.000273
      f-1     :     0.000872
      f+2     :     0.000661
      f-2     :     0.000943
      f+3     :     0.000301
      f-3     :     0.000266

  7 O s       :     3.953789  s :     3.953789
      pz      :     1.458843  p :     4.501311
      px      :     1.212652
      py      :     1.829817
      dz2     :     0.012464  d :     0.079411
      dxz     :     0.028163
      dyz     :     0.011154
      dx2y2   :     0.009826
      dxy     :     0.017804
      f0      :     0.001708  f :     0.008763
      f+1     :     0.000929
      f-1     :     0.000685
      f+2     :     0.001843
      f-2     :     0.000948
      f+3     :     0.000775
      f-3     :     0.001875

  8 C s       :     2.861360  s :     2.861360
      pz      :     0.481973  p :     1.520977
      px      :     0.501310
      py      :     0.537693
      dz2     :     0.084014  d :     0.387961
      dxz     :     0.039484
      dyz     :     0.074874
      dx2y2   :     0.092286
      dxy     :     0.097303
      f0      :     0.007223  f :     0.033900
      f+1     :     0.008807
      f-1     :     0.002093
      f+2     :     0.002305
      f-2     :     0.012203
      f+3     :     0.000748
      f-3     :     0.000522

  9 C s       :     3.284532  s :     3.284532
      pz      :     0.833310  p :     2.692779
      px      :     0.822533
      py      :     1.036935
      dz2     :     0.032787  d :     0.223480
      dxz     :     0.032813
      dyz     :     0.060957
      dx2y2   :     0.062334
      dxy     :     0.034590
      f0      :     0.005760  f :    -0.011089
      f+1     :    -0.004857
      f-1     :     0.001428
      f+2     :     0.000956
      f-2     :    -0.005973
      f+3     :    -0.003130
      f-3     :    -0.005272

 10 C s       :     3.225311  s :     3.225311
      pz      :     0.732093  p :     2.073676
      px      :     0.606871
      py      :     0.734712
      dz2     :     0.043434  d :     0.296215
      dxz     :     0.092812
      dyz     :     0.042499
      dx2y2   :     0.048751
      dxy     :     0.068720
      f0      :     0.003780  f :     0.014583
      f+1     :     0.008730
      f-1     :    -0.002682
      f+2     :    -0.005349
      f-2     :     0.001780
      f+3     :     0.005865
      f-3     :     0.002459

 11 C s       :     2.732696  s :     2.732696
      pz      :     0.488863  p :     1.655662
      px      :     0.702160
      py      :     0.464639
      dz2     :     0.086316  d :     0.419479
      dxz     :     0.075986
      dyz     :     0.074579
      dx2y2   :     0.096765
      dxy     :     0.085833
      f0      :     0.011860  f :     0.048415
      f+1     :     0.002053
      f-1     :     0.013086
      f+2     :     0.001517
      f-2     :     0.013116
      f+3     :     0.005926
      f-3     :     0.000857

 12 H s       :     0.720467  s :     0.720467
      pz      :     0.011123  p :     0.024466
      px      :     0.008779
      py      :     0.004564
      dz2     :     0.000237  d :     0.005242
      dxz     :     0.001250
      dyz     :     0.000087
      dx2y2   :     0.002323
      dxy     :     0.001345

 13 H s       :     0.738488  s :     0.738488
      pz      :     0.008841  p :     0.015745
      px      :     0.008003
      py      :    -0.001099
      dz2     :     0.001658  d :     0.006608
      dxz     :     0.002718
      dyz     :    -0.000199
      dx2y2   :     0.002001
      dxy     :     0.000429

 14 H s       :     0.664740  s :     0.664740
      pz      :    -0.001208  p :     0.038496
      px      :     0.027615
      py      :     0.012089
      dz2     :    -0.002150  d :    -0.000726
      dxz     :    -0.000353
      dyz     :     0.002713
      dx2y2   :    -0.000447
      dxy     :    -0.000489



                     *******************************
                     * LOEWDIN POPULATION ANALYSIS *
                     *******************************

----------------------
LOEWDIN ATOMIC CHARGES
----------------------
   0 F :    0.564441
   1 F :    0.567441
   2 F :    0.548929
   3 F :    0.556055
   4 F :    0.539209
   5 F :    0.543390
   6 F :    0.543587
   7 O :    0.592910
   8 C :   -1.404839
   9 C :   -0.050046
  10 C :   -0.880730
  11 C :   -1.546245
  12 H :   -0.161198
  13 H :   -0.202123
  14 H :   -0.210783

-------------------------------
LOEWDIN REDUCED ORBITAL CHARGES
-------------------------------
  0 F s       :     3.417886  s :     3.417886
      pz      :     1.558942  p :     4.836968
      px      :     1.615058
      py      :     1.662968
      dz2     :     0.040352  d :     0.152098
      dxz     :     0.036345
      dyz     :     0.038734
      dx2y2   :     0.021747
      dxy     :     0.014920
      f0      :     0.004730  f :     0.028607
      f+1     :     0.006239
      f-1     :     0.004663
      f+2     :     0.005778
      f-2     :     0.004477
      f+3     :     0.001445
      f-3     :     0.001274

  1 F s       :     3.405325  s :     3.405325
      pz      :     1.592870  p :     4.841023
      px      :     1.670975
      py      :     1.577177
      dz2     :     0.038143  d :     0.157103
      dxz     :     0.026423
      dyz     :     0.040993
      dx2y2   :     0.029152
      dxy     :     0.022392
      f0      :     0.004089  f :     0.029108
      f+1     :     0.001538
      f-1     :     0.007627
      f+2     :     0.005338
      f-2     :     0.005344
      f+3     :     0.002086
      f-3     :     0.003087

  2 F s       :     3.411309  s :     3.411309
      pz      :     1.675351  p :     4.849155
      px      :     1.493219
      py      :     1.680585
      dz2     :     0.017047  d :     0.161167
      dxz     :     0.049636
      dyz     :     0.008803
      dx2y2   :     0.039417
      dxy     :     0.046264
      f0      :     0.003433  f :     0.029439
      f+1     :     0.004432
      f-1     :     0.000389
      f+2     :     0.005600
      f-2     :     0.002448
      f+3     :     0.005135
      f-3     :     0.008002

  3 F s       :     3.409783  s :     3.409783
      pz      :     1.587363  p :     4.847078
      px      :     1.671375
      py      :     1.588340
      dz2     :     0.047148  d :     0.157733
      dxz     :     0.023677
      dyz     :     0.039029
      dx2y2   :     0.027036
      dxy     :     0.020844
      f0      :     0.005412  f :     0.029351
      f+1     :     0.001635
      f-1     :     0.007791
      f+2     :     0.005074
      f-2     :     0.005283
      f+3     :     0.001673
      f-3     :     0.002483

  4 F s       :     3.421882  s :     3.421882
      pz      :     1.650506  p :     4.853488
      px      :     1.660290
      py      :     1.542692
      dz2     :     0.019590  d :     0.156356
      dxz     :     0.016110
      dyz     :     0.042545
      dx2y2   :     0.040862
      dxy     :     0.037248
      f0      :     0.002611  f :     0.029066
      f+1     :     0.000744
      f-1     :     0.005020
      f+2     :     0.004630
      f-2     :     0.004496
      f+3     :     0.004815
      f-3     :     0.006749

  5 F s       :     3.421805  s :     3.421805
      pz      :     1.584311  p :     4.850750
      px      :     1.599664
      py      :     1.666775
      dz2     :     0.039880  d :     0.155045
      dxz     :     0.038694
      dyz     :     0.033168
      dx2y2   :     0.025640
      dxy     :     0.017662
      f0      :     0.004657  f :     0.029010
      f+1     :     0.007130
      f-1     :     0.003105
      f+2     :     0.005489
      f-2     :     0.004714
      f+3     :     0.002034
      f-3     :     0.001882

  6 F s       :     3.421107  s :     3.421107
      pz      :     1.581368  p :     4.850996
      px      :     1.680520
      py      :     1.589108
      dz2     :     0.035783  d :     0.155268
      dxz     :     0.029471
      dyz     :     0.042466
      dx2y2   :     0.025383
      dxy     :     0.022164
      f0      :     0.003742  f :     0.029043
      f+1     :     0.002244
      f-1     :     0.007341
      f+2     :     0.005179
      f-2     :     0.006094
      f+3     :     0.002047
      f-3     :     0.002397

  7 O s       :     3.016266  s :     3.016266
      pz      :     1.296338  p :     3.860196
      px      :     1.145155
      py      :     1.418703
      dz2     :     0.079005  d :     0.413618
      dxz     :     0.108808
      dyz     :     0.056548
      dx2y2   :     0.093331
      dxy     :     0.075926
      f0      :     0.018335  f :     0.117010
      f+1     :     0.020666
      f-1     :     0.008048
      f+2     :     0.021988
      f-2     :     0.016784
      f+3     :     0.013823
      f-3     :     0.017366

  8 C s       :     2.469691  s :     2.469691
      pz      :     0.663438  p :     2.119263
      px      :     0.701321
      py      :     0.754505
      dz2     :     0.289926  d :     1.618911
      dxz     :     0.342911
      dyz     :     0.370870
      dx2y2   :     0.340304
      dxy     :     0.274900
      f0      :     0.184858  f :     1.196973
      f+1     :     0.149490
      f-1     :     0.174904
      f+2     :     0.223068
      f-2     :     0.187797
      f+3     :     0.121094
      f-3     :     0.155763

  9 C s       :     2.449225  s :     2.449225
      pz      :     0.705686  p :     2.218590
      px      :     0.716031
      py      :     0.796873
      dz2     :     0.163954  d :     0.903818
      dxz     :     0.200494
      dyz     :     0.205641
      dx2y2   :     0.196766
      dxy     :     0.136963
      f0      :     0.071608  f :     0.478412
      f+1     :     0.095850
      f-1     :     0.039026
      f+2     :     0.077652
      f-2     :     0.082118
      f+3     :     0.051924
      f-3     :     0.060232

 10 C s       :     2.483133  s :     2.483133
      pz      :     0.747154  p :     2.154664
      px      :     0.660764
      py      :     0.746746
      dz2     :     0.234555  d :     1.338296
      dxz     :     0.267042
      dyz     :     0.271736
      dx2y2   :     0.315531
      dxy     :     0.249433
      f0      :     0.101253  f :     0.904637
      f+1     :     0.102673
      f-1     :     0.133447
      f+2     :     0.162256
      f-2     :     0.118544
      f+3     :     0.131456
      f-3     :     0.155009

 11 C s       :     2.480834  s :     2.480834
      pz      :     0.670190  p :     2.115285
      px      :     0.783635
      py      :     0.661460
      dz2     :     0.292379  d :     1.674469
      dxz     :     0.344426
      dyz     :     0.397848
      dx2y2   :     0.344488
      dxy     :     0.295328
      f0      :     0.169601  f :     1.275657
      f+1     :     0.141517
      f-1     :     0.216215
      f+2     :     0.208453
      f-2     :     0.236397
      f+3     :     0.137206
      f-3     :     0.166269

 12 H s       :     0.632404  s :     0.632404
      pz      :     0.103033  p :     0.295837
      px      :     0.080162
      py      :     0.112642
      dz2     :     0.057340  d :     0.232957
      dxz     :     0.049475
      dyz     :     0.045001
      dx2y2   :     0.048412
      dxy     :     0.032729

 13 H s       :     0.620680  s :     0.620680
      pz      :     0.079674  p :     0.323042
      px      :     0.107808
      py      :     0.135560
      dz2     :     0.035041  d :     0.258400
      dxz     :     0.030067
      dyz     :     0.060713
      dx2y2   :     0.080998
      dxy     :     0.051581

 14 H s       :     0.653459  s :     0.653459
      pz      :     0.120920  p :     0.303707
      px      :     0.107060
      py      :     0.075727
      dz2     :     0.066304  d :     0.253617
      dxz     :     0.047377
      dyz     :     0.061498
      dx2y2   :     0.051426
      dxy     :     0.027012



                      *****************************
                      * MAYER POPULATION ANALYSIS *
                      *****************************

  NA   - Mulliken gross atomic population
  ZA   - Total nuclear charge
  QA   - Mulliken gross atomic charge
  VA   - Mayer's total valence
  BVA  - Mayer's bonded valence
  FA   - Mayer's free valence

  ATOM       NA         ZA         QA         VA         BVA        FA
  0 F      9.3979     9.0000    -0.3979     0.8798     0.8798     0.0000
  1 F      9.4240     9.0000    -0.4240     0.8800     0.8800     0.0000
  2 F      9.4237     9.0000    -0.4237     0.8476     0.8476     0.0000
  3 F      9.4034     9.0000    -0.4034     0.8955     0.8955     0.0000
  4 F      9.3728     9.0000    -0.3728     0.9570     0.9570    -0.0000
  5 F      9.3795     9.0000    -0.3795     0.9454     0.9454     0.0000
  6 F      9.3821     9.0000    -0.3821     0.9854     0.9854    -0.0000
  7 O      8.5433     8.0000    -0.5433     1.9309     1.9309     0.0000
  8 C      4.8042     6.0000     1.1958     3.2959     3.2959     0.0000
  9 C      6.1897     6.0000    -0.1897     3.9685     3.9685     0.0000
 10 C      5.6098     6.0000     0.3902     3.6229     3.6229     0.0000
 11 C      4.8563     6.0000     1.1437     3.4060     3.4060    -0.0000
 12 H      0.7502     1.0000     0.2498     0.9724     0.9724     0.0000
 13 H      0.7608     1.0000     0.2392     0.9597     0.9597     0.0000
 14 H      0.7025     1.0000     0.2975     0.9937     0.9937     0.0000

  Mayer bond orders larger than 0.100000
B(  0-F ,  8-C ) :   0.6861 B(  1-F ,  8-C ) :   0.6098 B(  1-F , 10-C ) :   0.1354 
B(  2-F , 10-C ) :   0.7571 B(  3-F ,  8-C ) :   0.1059 B(  3-F , 10-C ) :   0.7066 
B(  4-F , 11-C ) :   0.7734 B(  5-F , 11-C ) :   0.7681 B(  6-F , 11-C ) :   0.7970 
B(  7-O ,  8-C ) :   0.8628 B(  7-O ,  9-C ) :   0.8388 B(  8-C , 10-C ) :   0.9427 
B(  9-C , 11-C ) :   1.0194 B(  9-C , 12-H ) :   0.8984 B(  9-C , 13-H ) :   0.8933 
B( 10-C , 14-H ) :   0.9431 

-------
TIMINGS
-------

Total SCF time: 0 days 0 hours 3 min 39 sec 

Total time                  ....     219.784 sec
Sum of individual times     ....     205.852 sec  ( 93.7%)

SCF preparation             ....       0.114 sec  (  0.1%)
Fock matrix formation       ....     204.555 sec  ( 93.1%)
  Startup                   ....       0.010 sec  (  0.0% of F)
  Split-RI-J                ....      10.145 sec  (  5.0% of F)
  Chain of spheres X        ....     181.729 sec  ( 88.8% of F)
  XC integration            ....      26.474 sec  ( 12.9% of F)
    XC Preparation          ....       0.000 sec  (  0.0% of XC)
    Basis function eval.    ....       4.357 sec  ( 16.5% of XC)
    Density eval.           ....       8.397 sec  ( 31.7% of XC)
    XC-Functional eval.     ....       0.203 sec  (  0.8% of XC)
    XC-Potential eval.      ....      13.194 sec  ( 49.8% of XC)
Diagonalization             ....       0.000 sec  (  0.0%)
Density matrix formation    ....       0.057 sec  (  0.0%)
Total Energy calculation    ....       0.012 sec  (  0.0%)
Population analysis         ....       0.059 sec  (  0.0%)
Orbital Transformation      ....       0.173 sec  (  0.1%)
Orbital Orthonormalization  ....       0.000 sec  (  0.0%)
DIIS solution               ....       0.511 sec  (  0.2%)
SOSCF solution              ....       0.371 sec  (  0.2%)
Finished LeanSCF after 219.8 sec

Maximum memory used throughout the entire LEANSCF-calculation: 126.2 MB

------------------------------------------------------------------------------
                         ORCA PROPERTY INTEGRAL CALCULATIONS
------------------------------------------------------------------------------

GBWName                                   ... HFE_347pcf2_gauche1.gbw
Number of atoms                           ...     15
Number of basis functions                 ...    693
Max core memory                           ...   4096 MB

Dipole integrals                          ... YES
Quadrupole integrals                      ...  NO
Linear momentum integrals                 ...  NO
Angular momentum integrals                ...  NO
Higher moments length integrals           ...  NO
Higher moments velocity integrals         ...  NO
Kinetic energy integrals                  ...  NO
GIAO right hand sides                     ...  NO
GIAO dipole derivative integrals          ...  NO
SOC integrals                             ...  NO
EPR diamagnetic integrals (GIAO)          ...  NO
EPR gauge integrals                       ...  NO
Field gradient integrals                  ...  NO (   0 nuclei)
Spin-dipole/Fermi contact integrals       ...  NO (   0 nuclei)
Contact density integrals                 ...  NO (   0 nuclei)
Nucleus-orbit integrals                   ...  NO (   0 nuclei)
Geometric perturbations                   ...  NO (  15 nuclei)

Choice of electric origin   ... Center of mass
Position of electric origin ... (  0.0036, -0.0093, -0.0132) 
Choice of magnetic origin   ... GIAO
Position of magnetic origin ... (  0.0000,  0.0000,  0.0000) 

Calculating integrals                     ... Electric Dipole (Length)     done (  0.0 sec)

Property integrals calculated in   0.0 sec

Maximum memory used throughout the entire PROPINT-calculation: 94.2 MB

-------------------------   --------------------
FINAL SINGLE POINT ENERGY      -928.348195356054
-------------------------   --------------------

------------------------------------------------------------------------------
                         ORCA SCF GRADIENT CALCULATION
------------------------------------------------------------------------------

Nuc. rep. gradient        (SHARK) ... done (  0.0 sec)
HCore & Overlap gradient  (SHARK) ... done (  0.7 sec)
Split-RIJ-J gradient      (SHARK) ... done (  4.7 sec)
COSX-gradient                     ... done ( 99.3 sec)
XC gradient                       ... done ( 12.4 sec)

------------------
CARTESIAN GRADIENT
------------------

   1   F   :    0.016259053    0.003999996   -0.010761344
   2   F   :   -0.002273819    0.000719873   -0.001116954
   3   F   :   -0.004835672   -0.004864315   -0.001547738
   4   F   :    0.005494224   -0.000418890    0.001156414
   5   F   :    0.001067924    0.005317270   -0.001800147
   6   F   :   -0.006495869   -0.000416247    0.002107507
   7   F   :    0.001081615   -0.003293277   -0.005370056
   8   O   :   -0.027358244   -0.004656468   -0.001640627
   9   C   :    0.025777099   -0.010218241    0.020513493
  10   C   :   -0.002060995    0.000792133   -0.010362167
  11   C   :   -0.023778887    0.022162086   -0.008482663
  12   C   :    0.008175658   -0.007654668    0.013743685
  13   H   :    0.004082320    0.002486289    0.001447139
  14   H   :    0.001652541   -0.000664488    0.000149788
  15   H   :    0.003213052   -0.003291052    0.001963670

Difference to translation invariance:
           :    0.0000000000    0.0000000001   -0.0000000001

Difference to rotation invariance:
           :    0.0003190706    0.0005402941   -0.0001474838

Norm of the Cartesian gradient     ...    0.0646169501
RMS gradient                       ...    0.0096325262
MAX gradient                       ...    0.0273582436

-------
TIMINGS
-------

Total SCF gradient time     ....      117.032 sec

Densities                   ....       0.004 sec  (  0.0%)
One electron gradient       ....       0.656 sec  (  0.6%)
RI-J Coulomb gradient       ....       4.682 sec  (  4.0%)
COSX gradient               ....      99.326 sec  ( 84.9%)
XC gradient                 ....      12.365 sec  ( 10.6%)

Maximum memory used throughout the entire SCFGRAD-calculation: 146.7 MB
------------------------------------------------------------------------------
                         ORCA GEOMETRY RELAXATION STEP
------------------------------------------------------------------------------

Reading the OPT-File                    .... done
Getting information on internals        .... done
Copying old internal coords+grads       .... done
Making the new internal coordinates     .... (2022 redundants) done
Validating the new internal coordinates .... (2022 redundants) done
Calculating the B-matrix                .... done
Calculating the G,G- and P matrices     .... done
Transforming gradient to internals      .... done
Projecting the internal gradient        .... done
Number of atoms                         ....  15
Number of internal coordinates          ....  57
Current Energy                          ....  -928.348195356 Eh
Current gradient norm                   ....     0.064616950 Eh/bohr
Maximum allowed component of the step   ....  0.300
Current trust radius                    ....  0.300
Evaluating the initial hessian          ....  (Almloef) done
Projecting the Hessian                  .... done
Forming the augmented Hessian           .... done
Diagonalizing the augmented Hessian     .... done
Last element of RFO vector              ....  0.966547566
Lowest eigenvalues of augmented Hessian:
 -0.011530238  0.013130278  0.013381858  0.019714980  0.020727895
Length of the computed step             ....  0.265364520
The final length of the internal step   ....  0.265364520
Converting the step to Cartesian space:
 Initial RMS(Int)=    0.0351483893
Transforming coordinates:
 Iter   0:  RMS(Cart)=    0.1555442877 RMS(Int)=    0.8245242751
 Iter   5:  RMS(Cart)=    0.0000016038 RMS(Int)=    0.0000011230
done
Storing new coordinates                 .... done

                                .--------------------.
          ----------------------|Geometry convergence|-------------------------
          Item                value                   Tolerance       Converged
          ---------------------------------------------------------------------
          RMS gradient        0.0084822022            0.0001000000      NO
          MAX gradient        0.0298723981            0.0003000000      NO
          RMS step            0.0351483893            0.0020000000      NO
          MAX step            0.1116061085            0.0040000000      NO
          -------------------------------------------------------------------------
          ........................................................
          Max(Bonds)      0.0268      Max(Angles)    4.29
          Max(Dihed)        6.39      Max(Improp)    0.00
          ---------------------------------------------------------------------

The optimization has not yet converged - more geometry cycles are needed


    ---------------------------------------------------------------------------
                         Redundant Internal Coordinates
                            (Angstroem and degrees)

        Definition                    Value    dE/dq     Step     New-Value
    ----------------------------------------------------------------------------
     1. B(C   8,F   1)                1.3540 -0.000433  0.0004    1.3544   
     2. B(C   8,O   7)                1.4217  0.020326 -0.0211    1.4006   
     3. B(C   8,F   0)                1.3550  0.018419 -0.0162    1.3388   
     4. B(C   9,O   7)                1.4208 -0.003566  0.0037    1.4245   
     5. B(C  10,F   3)                1.3555 -0.000757  0.0007    1.3562   
     6. B(C  10,C   8)                1.5053 -0.021280  0.0268    1.5321   
     7. B(C  10,F   2)                1.3560 -0.005564  0.0049    1.3609   
[...]
freq.     258.05  E(vib)   ...       0.34 
freq.     322.08  E(vib)   ...       0.28 
freq.     352.73  E(vib)   ...       0.26 
freq.     372.86  E(vib)   ...       0.25 
freq.     417.10  E(vib)   ...       0.22 
freq.     510.68  E(vib)   ...       0.16 
freq.     529.63  E(vib)   ...       0.15 
freq.     554.93  E(vib)   ...       0.14 
freq.     575.53  E(vib)   ...       0.13 
freq.     592.20  E(vib)   ...       0.13 
freq.     653.27  E(vib)   ...       0.10 
freq.     736.19  E(vib)   ...       0.08 
freq.     846.36  E(vib)   ...       0.06 
freq.     856.50  E(vib)   ...       0.05 
freq.     977.60  E(vib)   ...       0.03 
freq.    1076.38  E(vib)   ...       0.02 
freq.    1091.87  E(vib)   ...       0.02 
freq.    1117.51  E(vib)   ...       0.02 
freq.    1140.89  E(vib)   ...       0.02 
freq.    1155.96  E(vib)   ...       0.02 
freq.    1177.76  E(vib)   ...       0.02 
freq.    1202.23  E(vib)   ...       0.02 
freq.    1281.58  E(vib)   ...       0.01 
freq.    1290.03  E(vib)   ...       0.01 
freq.    1316.37  E(vib)   ...       0.01 
freq.    1370.97  E(vib)   ...       0.01 
freq.    1419.78  E(vib)   ...       0.01 
freq.    1442.58  E(vib)   ...       0.01 
freq.    1497.47  E(vib)   ...       0.01 
freq.    3045.69  E(vib)   ...       0.00 
freq.    3073.76  E(vib)   ...       0.00 
freq.    3108.21  E(vib)   ...       0.00 

------------
INNER ENERGY
------------

The inner energy is: U= E(el) + E(ZPE) + E(vib) + E(rot) + E(trans)
    E(el)   - is the total energy from the electronic structure calculation
              = E(kin-el) + E(nuc-el) + E(el-el) + E(nuc-nuc)
    E(ZPE)  - the the zero temperature vibrational energy from the frequency calculation
    E(vib)  - the the finite temperature correction to E(ZPE) due to population
              of excited vibrational states
    E(rot)  - is the rotational thermal energy
    E(trans)- is the translational thermal energy

Summary of contributions to the inner energy U:
Electronic energy                ...   -928.35613444 Eh
Zero point energy                ...      0.08232950 Eh      51.66 kcal/mol
Thermal vibrational correction   ...      0.00966297 Eh       6.06 kcal/mol
Thermal rotational correction    ...      0.00152006 Eh       0.95 kcal/mol
Thermal translational correction ...      0.00152006 Eh       0.95 kcal/mol
-----------------------------------------------------------------------
Total thermal energy                   -928.26110185 Eh


Summary of corrections to the electronic energy:
(perhaps to be used in another calculation)
Total thermal correction                  0.01270309 Eh       7.97 kcal/mol
Non-thermal (ZPE) correction              0.08232950 Eh      51.66 kcal/mol
-----------------------------------------------------------------------
Total correction                          0.09503259 Eh      59.63 kcal/mol


--------
ENTHALPY
--------

The enthalpy is H = U + kB*T
                kB is Boltzmann's constant
Total thermal energy              ...   -928.26110185 Eh 
Thermal Enthalpy correction       ...      0.00101341 Eh       0.64 kcal/mol
-----------------------------------------------------------------------
Total Enthalpy                    ...   -928.26008844 Eh


Note: Only C1 symmetry has been detected, increase convergence thresholds 
      if your molecule has a higher symmetry. Symmetry factor of 1.0 is   
      used for the rotational entropy correction. 
 

Note: Rotational entropy computed according to Herzberg 
Infrared and Raman Spectra, Chapter V,1, Van Nostrand Reinhold, 1945 
Point Group:  C1, Symmetry Number:   1  
Rotational constants in cm-1:     0.059749     0.015420     0.014508 

Vibrational entropy computed according to the QRRHO of S. Grimme
Chem.Eur.J. 2012 18 9955 using a reference frequency of 100.0 cm-1


-------
ENTROPY
-------

The entropy contributions are T*S = T*(S(el)+S(vib)+S(rot)+S(trans))
     S(el)   - electronic entropy
     S(vib)  - vibrational entropy
     S(rot)  - rotational entropy
     S(trans)- translational entropy
The entropies will be listed as multiplied by the temperature to get
units of energy

Electronic entropy                ...      0.00000000 Eh      0.00 kcal/mol
Vibrational entropy               ...      0.01754990 Eh     11.01 kcal/mol
Rotational entropy                ...      0.01600174 Eh     10.04 kcal/mol
Translational entropy             ...      0.02148743 Eh     13.48 kcal/mol
-----------------------------------------------------------------------
Final entropy term                ...      0.05503907 Eh     34.54 kcal/mol

In case the symmetry of your molecule has not been determined correctly
or in case you have a reason to use a different symmetry number we print 
out the resulting rotational entropy values for sn=1,12:

 non-linear molecules -----------------------------------
|  sn= 1 | S(rot)=       0.01600174 Eh     10.04 kcal/mol|
|  sn= 2 | S(rot)=       0.01529932 Eh      9.60 kcal/mol|
|  sn= 3 | S(rot)=       0.01488843 Eh      9.34 kcal/mol|
|  sn= 4 | S(rot)=       0.01459690 Eh      9.16 kcal/mol|
|  sn= 5 | S(rot)=       0.01437077 Eh      9.02 kcal/mol|
|  sn= 6 | S(rot)=       0.01418601 Eh      8.90 kcal/mol|
|  sn= 7 | S(rot)=       0.01402980 Eh      8.80 kcal/mol|
|  sn= 8 | S(rot)=       0.01389448 Eh      8.72 kcal/mol|
|  sn= 9 | S(rot)=       0.01377512 Eh      8.64 kcal/mol|
|  sn=10 | S(rot)=       0.01366835 Eh      8.58 kcal/mol|
|  sn=11 | S(rot)=       0.01357177 Eh      8.52 kcal/mol|
|  sn=12 | S(rot)=       0.01348359 Eh      8.46 kcal/mol|
 linear molecules ---------------------------------------
|  Dinfh | S(rot)=       0.01007746 Eh      6.32 kcal/mol|
|  Cinfv | S(rot)=       0.01077988 Eh      6.76 kcal/mol|
 --------------------------------------------------------


-------------------
GIBBS FREE ENERGY
-------------------

The Gibbs free energy is G = H - T*S

Total enthalpy                    ...   -928.26008844 Eh 
Total entropy correction          ...     -0.05503907 Eh    -34.54 kcal/mol
-----------------------------------------------------------------------
Final Gibbs free energy         ...   -928.31512751 Eh

For completeness - the Gibbs free energy minus the electronic energy
G-E(el)                           ...      0.04100693 Eh     25.73 kcal/mol


The first frequency considered to be a vibration is 6
The total number of vibrations considered is 39


--------------------------
THERMOCHEMISTRY AT 340.00K
--------------------------

Temperature         ...   340.00 K
Pressure            ...     1.00 atm
Total Mass          ...   200.05 AMU
Quasi RRHO          ...     True
Cut-Off Frequency   ...     1.00 cm^-1

Throughout the following assumptions are being made:
  (1) The electronic state is orbitally nondegenerate
  (2) There are no thermally accessible electronically excited states
  (3) Hindered rotations indicated by low frequency modes are not
      treated as such but are treated as vibrations and this may
      cause some error
  (4) All equations used are the standard statistical mechanics
      equations for an ideal gas
  (5) All vibrations are strictly harmonic

freq.      21.15  E(vib)   ...       0.65 
freq.      33.55  E(vib)   ...       0.63 
freq.      68.28  E(vib)   ...       0.58 
freq.      88.83  E(vib)   ...       0.56 
freq.     146.12  E(vib)   ...       0.49 
freq.     182.64  E(vib)   ...       0.45 
freq.     233.12  E(vib)   ...       0.40 
freq.     258.05  E(vib)   ...       0.37 
freq.     322.08  E(vib)   ...       0.32 
freq.     352.73  E(vib)   ...       0.29 
freq.     372.86  E(vib)   ...       0.28 
freq.     417.10  E(vib)   ...       0.25 
freq.     510.68  E(vib)   ...       0.19 
freq.     529.63  E(vib)   ...       0.18 
freq.     554.93  E(vib)   ...       0.17 
freq.     575.53  E(vib)   ...       0.16 
freq.     592.20  E(vib)   ...       0.15 
freq.     653.27  E(vib)   ...       0.13 
freq.     736.19  E(vib)   ...       0.10 
freq.     846.36  E(vib)   ...       0.07 
freq.     856.50  E(vib)   ...       0.07 
freq.     977.60  E(vib)   ...       0.05 
freq.    1076.38  E(vib)   ...       0.03 
freq.    1091.87  E(vib)   ...       0.03 
freq.    1117.51  E(vib)   ...       0.03 
freq.    1140.89  E(vib)   ...       0.03 
freq.    1155.96  E(vib)   ...       0.03 
freq.    1177.76  E(vib)   ...       0.02 
freq.    1202.23  E(vib)   ...       0.02 
freq.    1281.58  E(vib)   ...       0.02 
freq.    1290.03  E(vib)   ...       0.02 
freq.    1316.37  E(vib)   ...       0.01 
freq.    1370.97  E(vib)   ...       0.01 
freq.    1419.78  E(vib)   ...       0.01 
freq.    1442.58  E(vib)   ...       0.01 
freq.    1497.47  E(vib)   ...       0.01 
freq.    3045.69  E(vib)   ...       0.00 
freq.    3073.76  E(vib)   ...       0.00 
freq.    3108.21  E(vib)   ...       0.00 

------------
INNER ENERGY
------------

The inner energy is: U= E(el) + E(ZPE) + E(vib) + E(rot) + E(trans)
    E(el)   - is the total energy from the electronic structure calculation
              = E(kin-el) + E(nuc-el) + E(el-el) + E(nuc-nuc)
    E(ZPE)  - the the zero temperature vibrational energy from the frequency calculation
    E(vib)  - the the finite temperature correction to E(ZPE) due to population
              of excited vibrational states
    E(rot)  - is the rotational thermal energy
    E(trans)- is the translational thermal energy

Summary of contributions to the inner energy U:
Electronic energy                ...   -928.35613444 Eh
Zero point energy                ...      0.08232950 Eh      51.66 kcal/mol
Thermal vibrational correction   ...      0.01079902 Eh       6.78 kcal/mol
Thermal rotational correction    ...      0.00161507 Eh       1.01 kcal/mol
Thermal translational correction ...      0.00161507 Eh       1.01 kcal/mol
-----------------------------------------------------------------------
Total thermal energy                   -928.25977578 Eh


Summary of corrections to the electronic energy:
(perhaps to be used in another calculation)
Total thermal correction                  0.01402915 Eh       8.80 kcal/mol
Non-thermal (ZPE) correction              0.08232950 Eh      51.66 kcal/mol
-----------------------------------------------------------------------
Total correction                          0.09635866 Eh      60.47 kcal/mol


--------
ENTHALPY
--------

The enthalpy is H = U + kB*T
                kB is Boltzmann's constant
Total thermal energy              ...   -928.25977578 Eh 
Thermal Enthalpy correction       ...      0.00107674 Eh       0.68 kcal/mol
-----------------------------------------------------------------------
Total Enthalpy                    ...   -928.25869904 Eh


Note: Only C1 symmetry has been detected, increase convergence thresholds 
      if your molecule has a higher symmetry. Symmetry factor of 1.0 is   
      used for the rotational entropy correction. 
 

Note: Rotational entropy computed according to Herzberg 
Infrared and Raman Spectra, Chapter V,1, Van Nostrand Reinhold, 1945 
Point Group:  C1, Symmetry Number:   1  
Rotational constants in cm-1:     0.059749     0.015420     0.014508 

Vibrational entropy computed according to the QRRHO of S. Grimme
Chem.Eur.J. 2012 18 9955 using a reference frequency of 100.0 cm-1


-------
ENTROPY
-------

The entropy contributions are T*S = T*(S(el)+S(vib)+S(rot)+S(trans))
     S(el)   - electronic entropy
     S(vib)  - vibrational entropy
     S(rot)  - rotational entropy
     S(trans)- translational entropy
The entropies will be listed as multiplied by the temperature to get
units of energy

Electronic entropy                ...      0.00000000 Eh      0.00 kcal/mol
Vibrational entropy               ...      0.01969672 Eh     12.36 kcal/mol
Rotational entropy                ...      0.01709976 Eh     10.73 kcal/mol
Translational entropy             ...      0.02299358 Eh     14.43 kcal/mol
-----------------------------------------------------------------------
Final entropy term                ...      0.05979006 Eh     37.52 kcal/mol

In case the symmetry of your molecule has not been determined correctly
or in case you have a reason to use a different symmetry number we print 
out the resulting rotational entropy values for sn=1,12:

 non-linear molecules -----------------------------------
|  sn= 1 | S(rot)=       0.01709976 Eh     10.73 kcal/mol|
|  sn= 2 | S(rot)=       0.01635344 Eh     10.26 kcal/mol|
|  sn= 3 | S(rot)=       0.01591687 Eh      9.99 kcal/mol|
|  sn= 4 | S(rot)=       0.01560712 Eh      9.79 kcal/mol|
|  sn= 5 | S(rot)=       0.01536686 Eh      9.64 kcal/mol|
|  sn= 6 | S(rot)=       0.01517055 Eh      9.52 kcal/mol|
|  sn= 7 | S(rot)=       0.01500457 Eh      9.42 kcal/mol|
|  sn= 8 | S(rot)=       0.01486080 Eh      9.33 kcal/mol|
|  sn= 9 | S(rot)=       0.01473398 Eh      9.25 kcal/mol|
|  sn=10 | S(rot)=       0.01462054 Eh      9.17 kcal/mol|
|  sn=11 | S(rot)=       0.01451792 Eh      9.11 kcal/mol|
|  sn=12 | S(rot)=       0.01442423 Eh      9.05 kcal/mol|
 linear molecules ---------------------------------------
|  Dinfh | S(rot)=       0.01077258 Eh      6.76 kcal/mol|
|  Cinfv | S(rot)=       0.01151890 Eh      7.23 kcal/mol|
 --------------------------------------------------------


-------------------
GIBBS FREE ENERGY
-------------------

The Gibbs free energy is G = H - T*S

Total enthalpy                    ...   -928.25869904 Eh 
Total entropy correction          ...     -0.05979006 Eh    -37.52 kcal/mol
-----------------------------------------------------------------------
Final Gibbs free energy         ...   -928.31848910 Eh

For completeness - the Gibbs free energy minus the electronic energy
G-E(el)                           ...      0.03764534 Eh     23.62 kcal/mol


Maximum memory used throughout the entire PROP-calculation: 247.2 MB

--------------------------------
SUGGESTED CITATIONS FOR THIS RUN
--------------------------------

Below you find a list of papers that are relevant to this ORCA run
We neither can nor want to force you to cite these papers, but we appreciate if you do
You receive ORCA, which is the product of decades of hard work by many enthusiastic individuals, for free
The only thing we kindly ask in return is that you cite our papers,
We deeply appreciate it, if you show your appreciation for ORCA by not just citing the generic ORCA reference.

Please note that relegating all ORCA citations to the supporting information does *not* help us.
SI sections are not indexed - citations you put there will not count into any citation statistics
But we need these citations in order to attract the funding resources that allow us to do what we are doing

Therefore, if you are a happy ORCA user, please consider citing a few of the papers listed below in the main body of your paper

In addition to the list printed below, the program has created the file HFE_347pcf2_gauche1.bibtex that contains the list in bibtex format
You can import this file easily into all common literature databanks and citation aid programs

It goes without saying that in many instances, there are alternative algorithms to achieve similar
results as the ones you have gotten from ORCA. It is, of course, also the case that in some instances
ORCA just re-implements algorithms worked out by others. We are fully aware of that and we are also
fully appreciative of our colleagues work. Hence this citation list should not be read as indicating
that the listed papers, which are focused on our own work, are the only ones worth citing. It simply
meant to make it easier for users to cite ORCA specific papers. It is not a substitute for doing your
own literature research and citing the relevant literature in a scientifically appropriate manner.

List of essential papers. We consider these as the minimum necessary citations

  1. Neese, F.
     Software update: the ORCA program system, version 6.0
     WIRES Comput. Molec. Sci. 2025 15(1), e70019
     doi.org/10.1002/wcms.70019

List of papers to cite with high priority. The work reported in these papers was absolutely
necessary for this run to complete.
Our perspective: the developers of density functionals and basis sets usually get cited in chemistry papers
Good! But without the algorithms to do something with them, the functionals or basis sets would not do anything.
Hence, in our opinion, the algorithm design and method developments papers are equally worthy of getting cited

  1. Neese, F.
     An improvement of the resolution of the identity approximation for the formation of the Coulomb matrix
     J. Comp. Chem. 2003 24(14), 1740-1747
     doi.org/10.1002/jcc.10318
  2. Neese, F.; Wennmohs, F.; Hansen, A.; Becker, U.
     Efficient, approximate and parallel Hartree-Fock and hybrid DFT calculations. A 'chain-of-spheres' algorithm for the Hartree-Fock exchange
     Chem. Phys. 2009 356(1-3), 98-109
     doi.org/10.1016/j.chemphys.2008.10.036
  3. Bykov, D.; Petrenko, T.; Izsak, R.; Kossmann, S.; Becker, U.; Valeev, E.; Neese, F.
     Efficient implementation of the analytic second derivatives of Hartree-Fock and hybrid DFT energies: a detailed analysis of different approximations
     Molec. Phys. 2015 113 , 1961-1977
     doi.org/10.1080/00268976.2015.1025114
  4. Helmich-Paris, B.; de Souza, B.; Neese, F.; Izsák, R.
     An improved chain of spheres for exchange algorithm
     J. Chem. Phys. 2021 155(10), 104109
     doi.org/10.1063/5.0058766
  5. Neese, F.
     The SHARK Integral Generation and Digestion System
     J. Comp. Chem. 2022 44(3), 381
     doi.org/10.1002/jcc.26942

List of suggested additional citations. These are papers that are important in the 'surrounding' of 
of this run, or papers that preceded the highly important papers. If you like your results we are grateful for a citation.

  1. Izsak, R.; Neese, F.
     An overlap fitted chain of spheres exchange method
     J. Chem. Phys. 2011 135 , 144105
     doi.org/10.1063/1.3646921
  2. Izsak, R.; Hansen, A.; Neese, F.
     The resolution of identity and chain of spheres approximations for the LPNO-CCSD singles Fock term
     Molec. Phys. 2012 110 , 2413-2417
     doi.org/10.1080/00268976.2012.687466
  3. Neese, F.
     The ORCA program system
     WIRES Comput. Molec. Sci. 2012 2(1), 73-78
     doi.org/10.1002/wcms.81
  4. Izsak, R.; Neese, F.; Klopper, W.
     Robust fitting techniques in the chain of spheres approximation to the Fock exchange: The role of the complementary space
     J. Chem. Phys. 2013 139 , 
     doi.org/10.1063/1.4819264
  5. Neese, F.
     Software update: the ORCA program system, version 4.0
     WIRES Comput. Molec. Sci. 2018 8(1), 1-6
     doi.org/10.1002/wcms.1327
  6. Neese, F.; Wennmohs, F.; Becker, U.; Riplinger, C.
     The ORCA quantum chemistry program package
     J. Chem. Phys. 2020 152(22), 224108
     doi.org/10.1063/5.0004608
  7. Neese, F.
     Software update: The ORCA program system—Version 5.0
     WIRES Comput. Molec. Sci. 2022 12(1), e1606
     doi.org/10.1002/wcms.1606

List of optional additional citations

  1. Neese, F.
     Approximate second-order SCF convergence for spin unrestricted wavefunctions
     Chem. Phys. Lett. 2000 325(1-3), 93-98
     doi.org/10.1016/s0009-2614(00)00662-x

Timings for individual modules:

Sum of individual times          ...     6509.585 sec (= 108.493 min)
Startup calculation              ...       54.596 sec (=   0.910 min)   0.8 %
SCF iterations                   ...     2383.798 sec (=  39.730 min)  36.6 %
Property integrals               ...      702.265 sec (=  11.704 min)  10.8 %
SCF Response                     ...      473.071 sec (=   7.885 min)   7.3 %
Property calculations            ...     1533.499 sec (=  25.558 min)  23.6 %
SCF Gradient evaluation          ...     1362.314 sec (=  22.705 min)  20.9 %
Geometry relaxation              ...        0.043 sec (=   0.001 min)   0.0 %
                             ****ORCA TERMINATED NORMALLY****
TOTAL RUN TIME: 0 days 1 hours 48 minutes 30 seconds 219 msec
