
                                 *****************
                                 * O   R   C   A *
                                 *****************

                                            #,                                       
                                            ###                                      
                                            ####                                     
                                            #####                                    
                                            ######                                   
                                           ########,                                 
                                     ,,################,,,,,                         
                               ,,#################################,,                 
                          ,,##########################################,,             
                       ,#########################################, ''#####,          
                    ,#############################################,,   '####,        
                  ,##################################################,,,,####,       
                ,###########''''           ''''###############################       
              ,#####''   ,,,,##########,,,,          '''####'''          '####       
            ,##' ,,,,###########################,,,                        '##       
           ' ,,###''''                  '''############,,,                           
         ,,##''                                '''############,,,,        ,,,,,,###''
      ,#''                                            '''#######################'''  
     '                                                          ''''####''''         
             ,#######,   #######,   ,#######,      ##                                
            ,#'     '#,  ##    ##  ,#'     '#,    #''#        ,####,    ,#,          
            ##       ##  ##   ,#'  ##            #'  '#       #'       ,# #          
            ##       ##  #######   ##           ,######,      #####,      #          
            '#,     ,#'  ##    ##  '#,     ,#' ,#      #,     #,   #      #          
             '#######'   ##     ##  '#######'  #'      '#     '####' #    #          



                #########################################################
                #                        -***-                          #
                #          Department of theory and spectroscopy        #
                #                                                       #
                #                      Frank Neese                      #
                #                                                       #
                #     Directorship, Architecture, Infrastructure        #
                #                    SHARK, DRIVERS                     #
                #        Core code/Algorithms in most modules           #
                #                                                       #
                #        Max Planck Institute fuer Kohlenforschung      #
                #                Kaiser Wilhelm Platz 1                 #
                #                 D-45470 Muelheim/Ruhr                 #
                #                      Germany                          #
                #                                                       #
                #                  All rights reserved                  #
                #                        -***-                          #
                #########################################################


                         Program Version 6.1.0  -  RELEASE   -
                                (GIT: $679e74b$)
                          ($2025-06-10 18:02:51 +0200$)


 With contributions from (in alphabetic order):
[Max-Planck-Institut fuer Kohlenforschung]                               
  Daniel Aravena         : Magnetic Suceptibility                        
  Michael Atanasov       : Ab Initio Ligand Field Theory (pilot matlab implementation)
  Alexander A. Auer      : GIAO ZORA, VPT2 properties, NMR spectrum      
  Ute Becker             : All parallelization in ORCA, NUMFREQ, NUMCALC 
  Giovanni Bistoni       : ED, misc. LED, open-shell LED, HFLD           
  Dmytro Bykov           : pre 5.0 version of the SCF Hessian            
  Marcos Casanova-Páez   : Triplet and SCS-CIS(D). UHF-(DLPNO)-IP/EA/STEOM-CCSD. UHF-CVS-IP/STEOM-CCSD   
  Vijay G. Chilkuri      : MRCI spin determinant printing, contributions to CSF-ICE 
  Pauline Colinet        : FMM embedding                                 
  Dipayan Datta          : RHF DLPNO-CCSD density                        
  Achintya Kumar Dutta   : EOM-CC, STEOM-CC                              
  Nicolas Foglia         : Exact transition moments, OPA infrastructure, MCD improvements    
  Dmitry Ganyushin       : Spin-Orbit,Spin-Spin,Magnetic field MRCI      
  Miquel Garcia-Rates    : C-PCM and meta-GGA Hessian, CCSD/C-PCM, Gaussian charge scheme 
  Tiago L. C. Gouveia    : GS-ROHF, GS-ROCIS                             
  Yang Guo               : DLPNO-NEVPT2, F12-NEVPT2, CIM, IAO-localization        
  Andreas Hansen         : Spin unrestricted coupled pair/coupled cluster methods 
  Ingolf Harden          : AUTO-CI MPn and infrastructure                
  Benjamin Helmich-Paris : MC-RPA, TRAH-(SCF,CASSCF), AVAS, COSX integrals, SCF dyn. polar., MC-PDFT, srDFT 
  Lee Huntington         : MR-EOM, pCC                                   
  Robert Izsak           : Overlap fitted RIJCOSX, COSX-SCS-MP3, EOM     
  Riya Kayal             : Wick's Theorem for AUTO-CI, AUTO-CI UHF-CCSDT 
  Emily Kempfer          : AUTO-CI RHF CISDT and CCSDT, approximate NEVPT4
  Christian Kollmar      : KDIIS, OOCD, Brueckner-CCSD(T), CCSD density, CASPT2, CASPT2-K, improved NEVPT2 
  Axel Koslowski         : Symmetry handling                             
  Simone Kossmann        : meta-GGA functionals, TD-DFT gradient, OOMP2, (MP2 Hessian; deprecated post 5.0) 
  Lucas Lang             : DCDCAS, Hyperfine gauge corrections, ICE-SOC+SSC
  Marvin Lechner         : AUTO-CI (C++ implementation), FIC-MRCC        
  Spencer Leger          : CASSCF response                               
  Dagmar Lenk            : GEPOL surface, SMD, ORCA-2-JSON               
  Dimitrios Liakos       : Extrapolation schemes; Compound Job, Property file
  Dimitrios Manganas     : Further ROCIS development; embedding schemes. LFT, Crystal Embedding 
  Dimitrios Pantazis     : SARC Basis sets                               
  Anastasios Papadopoulos: AUTO-CI, single reference methods and gradients 
  Taras Petrenko         : pre 6.0 DFT Hessian and TD-DFT gradient,  ECA, NRVS 
  Petra Pikulova         : Analytic Raman intensities                    
  Peter Pinski           : DLPNO-MP2, DLPNO-MP2 Gradient                 
  Shashank Vittal Rao    : ES-AILFT, MagRelax                            
  Christoph Reimann      : Effective Core Potentials                     
  Marius Retegan         : Local ZFS, SOC                                
  Christoph Riplinger    : Optimizer, TS searches, QM/MM, DLPNO-CCSD(T), (RO)-DLPNO pert. Triples 
  Michael Roemelt        : Original ROCIS implementation, recursive CI coupling coefficients
  Masaaki Saitow         : Open-shell DLPNO-CCSD energy and density      
  Barbara Sandhoefer     : DKH picture change effects                    
  Yorick L. A. Schmerwitz: GMF and freeze-and-release deltaSCF, NEB S-IDPP initial path                    
  Kantharuban Sivalingam : CASSCF convergence/infrastructure, NEVPT2, NEVPT3, NEVPT4(SD), FIC-MRCI and CEPA variants
  Bernardo de Souza      : ESD, SOC TD-DFT                               
  Georgi L. Stoychev     : AutoAux, RI-MP2 NMR, DLPNO-MP2 response, X2C  
  Van Anh Tran           : RI-MP2 g-tensors                              
  Willem Van den Heuvel  : Paramagnetic NMR                              
  Zikuan Wang            : NOTCH, Electric field optimization            
  Frank Wennmohs         : Technical directorship and infrastructure     
  Hang Xu                : AUTO-CI-Response properties                   
                                                                         
[FACCTs GmbH]                                                            
  Markus Bursch, Nicolas Foglia, Miquel Garcia-Rates, Ingolf Harden, Hagen Neugebauer, Anastasios Papadopoulos, 
  Christoph Riplinger, Bernardo de Souza, Georgi L. Stoychev                                                    
                                                                 
  APM, various basis sets, CI-OPT, improved COSX, DLPNO-Multilevel,           
  DOCKER, DRACO, updates on ESD, Fragmentator, GOAT, IRC, LR-CPCM, L-BFGS, MBIS, meta-GGA TD-DFT gradient, ML-optimized integration grids, 
  MM, NACMEs, nearIR, NEB, NEB-TS, NL-DFT gradient (VV10), 2- and 3-layer-ONIOM, interface openCOSMO-RS, QMMM,   
  Crystal-QMMM, RESP, rigid body optimization, SF, symmetry and pop. for TD-DFT, various functionals, SOLVATOR                                   
                                                                         
[Other institutions]                                                     
  V. Asgeirsson          : NEB                                           
  Christoph Bannwarth    : sTDA-DFT, sTD-DFT, PBEh-3c, B97-3c, D3        
  Giovanni Bistoni       : ETS/NOCV, ADLD/ADEX, COVALED                  
  Martin Brehm           : Molecular dynamics                            
  Ronald Cardenas        : ETS/NOCV                                      
  Martina Colucci        : COVALED                                       
  Sebastian Ehlert       : rSCAN, r2SCAN, r2SCAN-3c, D4, dhf basis sets  
  Marvin Friede          : D4 for Fr, Ra, Ac-Lr                          
  Lars Goerigk           : TD-DFT with DH, B97 family of functionals     
  Stefan Grimme          : VdW corrections, initial TS optimization, DFT functionals, gCP, sTDA/sTD-DF 
  Waldemar Hujo          : DFT-NL                                        
  H. Jonsson             : NEB                                           
  Holger Kruse           : gCP                                           
  Marcel Mueller         : wB97X-3c, vDZP basis set                      
  Hagen Neugebauer       : wr2SCAN, Native XTB                           
  Gianluca Regni         : ADLD/ADEX                                     
  Tobias Risthaus        : pre 6.0 range-separated hybrid DFT and stability analysis
  Lukas Wittmann         : regularized MP2, r2SCAN double-hybrids, wr2SCAN        
                                                                         
We gratefully acknowledge several colleagues who have allowed us to      
interface, adapt or use parts of their codes:                            
  Ed Valeev, F. Pavosevic, A. Kumar             : LibInt (2-el integral package), F12 methods 
  Garnet Chan, S. Sharma, J. Yang, R. Olivares  : DMRG                   
  Ulf Ekstrom                                   : XCFun DFT Library      
  Mihaly Kallay                                 : mrcc  (arbitrary order and MRCC methods)
  Frank Weinhold                                : gennbo (NPA and NBO analysis)           
  Simon Mueller                                 : openCOSMO-RS                            
  Christopher J. Cramer and Donald G. Truhlar   : smd solvation model                     
  S Lehtola, MJT Oliveira, MAL Marques          : LibXC Library                           
  Liviu Ungur et al                             : ANISO software                          


 Your calculation uses the libint2 library for the computation of 2-el integrals
 For citations please refer to: http://libint.valeyev.net

 Your ORCA version has been built with support for libXC version: 7.0.0
 For citations please refer to: https://libxc.gitlab.io

 This ORCA versions uses:
   CBLAS   interface :  Fast vector & matrix operations
   LAPACKE interface :  Fast linear algebra routines
   SCALAPACK package :  Parallel linear algebra routines
   Shared memory     :  Shared parallel matrices
   BLAS/LAPACK       :  OpenBLAS 0.3.29  USE64BITINT DYNAMIC_ARCH NO_AFFINITY Haswell SINGLE_THREADED
        Core in use  :  Haswell
   Copyright (c) 2011-2014, The OpenBLAS Project


  ***********************************
  * Starting time: Tue Nov 18 13:20:47 2025
  * Host name:     BOOK-611GI2U5BQ
  * Process ID:    15742
  * Working dir.:  /home/a_limbo/IR_lab
  ***********************************

Warning: RI is on but no J-basis has been assigned. Assigning Def2/J (nothing to worry about!)
================================================================================

----- Orbital basis set information -----
Your calculation utilizes the basis: def2-SVP
   F. Weigend and R. Ahlrichs, Phys. Chem. Chem. Phys. 7, 3297 (2005).

----- AuxJ basis set information -----
Your calculation utilizes the auxiliary basis: def2/J
   H-Rn: F. Weigend, Phys. Chem. Chem. Phys. 8, 1057 (2006).
   Fr-Lr: K. Eichkorn, F. Weigend, O. Treutler, R. Ahlrichs; Theor. Chem. Acc. 97, 119 (1997).

================================================================================
                                        WARNINGS
                       Please study these warnings very carefully!
================================================================================

WARNING: Old DensityContainer found on disk!
         Will remove this file - 
         If you want to keep old densities, please start your calculation with a different basename. 


WARNING: Geometry Optimization
  ===> : Switching off AutoStart
         For restart on a previous wavefunction, please use MOREAD

================================================================================
                                       INPUT FILE
================================================================================
NAME = TFTFE_C3.inp
|  1> # avogadro generated ORCA input file 
|  2> # Basic Mode
|  3> # 
|  4> ! B3LYP def2-SVP OPT FREQ
|  5> 
|  6> * xyz 0 1
|  7>    C       -2.87203        1.21046        0.23369
|  8>    F       -3.85940        1.57630       -0.61758
|  9>    F       -3.21375        1.65190        1.46288
| 10>    F       -2.84330       -0.13980        0.26343
| 11>    C       -1.53723        1.78451       -0.22724
| 12>    O       -0.50013        1.57705        0.73764
| 13>    H       -1.65571        2.86254       -0.38397
| 14>    H       -1.26132        1.31673       -1.17906
| 15>    C        0.79018        1.92912        0.24706
| 16>    F        0.65733        2.79426       -0.79528
| 17>    F        1.40692        2.63301        1.23236
| 18>    C        1.64804        0.72839       -0.16464
| 19>    H        2.63253        1.04651       -0.51770
| 20>    F        1.81940       -0.13886        0.86793
| 21>    F        1.04163        0.02288       -1.15950
| 22> *
| 23> 
| 24> 
| 25>                          ****END OF INPUT****
================================================================================

                       *****************************
                       * Geometry Optimization Run *
                       *****************************

Geometry optimization settings:
Update method            Update   .... BFGS
Choice of coordinates    CoordSys .... (2022) Redundant Internals
Initial Hessian          InHess   .... Almloef's Model
Max. no of cycles        MaxIter  .... 50

Convergence Tolerances:
Energy Change            TolE     ....  5.0000e-06 Eh
Max. Gradient            TolMAXG  ....  3.0000e-04 Eh/bohr
RMS Gradient             TolRMSG  ....  1.0000e-04 Eh/bohr
Max. Displacement        TolMAXD  ....  4.0000e-03 bohr
RMS Displacement         TolRMSD  ....  2.0000e-03 bohr
Strict Convergence                .... False

------------------------------------------------------------------------------
                        ORCA OPTIMIZATION COORDINATE SETUP
------------------------------------------------------------------------------

The optimization will be done in redundant internal coordinates (2022)
Making redundant internal coordinates   ...  (2022 redundants) done
Evaluating the initial hessian          ...  (Almloef) done
Evaluating the coordinates              ...  done
Calculating the B-matrix                .... done
Calculating the G-matrix                .... done
The number of degrees of freedom        ....   57

    -----------------------------------------------------------------
                    Redundant Internal Coordinates


    -----------------------------------------------------------------
         Definition                    Initial Value    Approx d2E/dq
    -----------------------------------------------------------------
      1. B(F   1,C   0)                  1.3540         0.593408   
      2. B(F   2,C   0)                  1.3500         0.602219   
      3. B(F   3,C   0)                  1.3509         0.600288   
      4. B(C   4,C   0)                  1.5244         0.381392   
      5. B(O   5,C   4)                  1.4316         0.480211   
      6. B(H   6,C   4)                  1.0958         0.352525   
      7. B(H   7,C   4)                  1.0959         0.352433   
      8. B(C   8,O   5)                  1.4246         0.492780   
      9. B(F   9,C   8)                  1.3611         0.578199   
     10. B(F  10,C   8)                  1.3589         0.582859   
     11. B(C  11,C   8)                  1.5320         0.370774   
     12. B(H  12,C  11)                  1.0932         0.355900   
     13. B(F  13,C  11)                  1.3593         0.582039   
     14. B(F  14,C  11)                  1.3621         0.576147   
     15. A(F   2,C   0,F   3)          108.1903         0.419998   
     16. A(F   1,C   0,F   3)          107.4221         0.418895   
     17. A(F   3,C   0,C   4)          111.3732         0.391652   
     18. A(F   2,C   0,C   4)          111.9514         0.391872   
     19. A(F   1,C   0,F   2)          107.4274         0.419135   
     20. A(F   1,C   0,C   4)          110.2843         0.390864   
     21. A(C   0,C   4,O   5)          112.0840         0.378360   
     22. A(H   6,C   4,H   7)          108.8406         0.288894   
     23. A(O   5,C   4,H   7)          109.9460         0.334831   
     24. A(C   0,C   4,H   7)          108.8050         0.324276   
     25. A(O   5,C   4,H   6)          108.4988         0.334845   
     26. A(C   0,C   4,H   6)          108.6056         0.324289   
     27. A(C   4,O   5,C   8)          112.8437         0.393114   
     28. A(O   5,C   8,F  10)          106.8214         0.404970   
     29. A(O   5,C   8,F   9)          109.4141         0.404397   
     30. A(F  10,C   8,C  11)          110.2842         0.387725   
     31. A(F   9,C   8,C  11)          110.3053         0.387183   
     32. A(O   5,C   8,C  11)          113.9541         0.378202   
     33. A(F   9,C   8,F  10)          105.6833         0.414782   
     34. A(F  13,C  11,F  14)          106.2898         0.414417   
     35. A(H  12,C  11,F  14)          108.4079         0.344311   
     36. A(C   8,C  11,F  14)          110.6672         0.386943   
     37. A(H  12,C  11,F  13)          108.5098         0.344900   
     38. A(C   8,C  11,F  13)          111.4996         0.387630   
     39. A(C   8,C  11,H  12)          111.2835         0.323295   
     40. D(O   5,C   4,C   0,F   3)    -68.7961         0.011589   
     41. D(O   5,C   4,C   0,F   1)    172.0326         0.011589   
     42. D(H   6,C   4,C   0,F   2)    -67.3794         0.011589   
     43. D(H   6,C   4,C   0,F   3)    171.3444         0.011589   
     44. D(O   5,C   4,C   0,F   2)     52.4801         0.011589   
     45. D(H   6,C   4,C   0,F   1)     52.1730         0.011589   
     46. D(C   8,O   5,C   4,C   0)    171.3897         0.018192   
     47. D(C   8,O   5,C   4,H   7)     50.2377         0.018192   
     48. D(C   8,O   5,C   4,H   6)    -68.6884         0.018192   
     49. D(C  11,C   8,O   5,C   4)   -102.3737         0.019181   
     50. D(F  10,C   8,O   5,C   4)    135.5789         0.019181   
     51. D(F   9,C   8,O   5,C   4)     21.6265         0.019181   
     52. D(H  12,C  11,C   8,F  10)    -58.9256         0.010987   
     53. D(H  12,C  11,C   8,F   9)     57.4366         0.010987   
     54. D(H  12,C  11,C   8,O   5)   -179.0448         0.010987   
     55. D(F  13,C  11,C   8,F  10)     62.3816         0.010987   
     56. D(F  13,C  11,C   8,F   9)    178.7439         0.010987   
     57. D(F  13,C  11,C   8,O   5)    -57.7375         0.010987   
    -----------------------------------------------------------------

Number of atoms                         .... 15
Number of degrees of freedom            .... 57


         *************************************************************
         *                GEOMETRY OPTIMIZATION CYCLE   1            *
         *************************************************************
---------------------------------
CARTESIAN COORDINATES (ANGSTROEM)
---------------------------------
  C     -2.872030    1.210460    0.233690
  F     -3.859400    1.576300   -0.617580
  F     -3.213750    1.651900    1.462880
  F     -2.843300   -0.139800    0.263430
  C     -1.537230    1.784510   -0.227240
  O     -0.500130    1.577050    0.737640
  H     -1.655710    2.862540   -0.383970
  H     -1.261320    1.316730   -1.179060
  C      0.790180    1.929120    0.247060
  F      0.657330    2.794260   -0.795280
  F      1.406920    2.633010    1.232360
  C      1.648040    0.728390   -0.164640
  H      2.632530    1.046510   -0.517700
  F      1.819400   -0.138860    0.867930
  F      1.041630    0.022880   -1.159500

----------------------------
CARTESIAN COORDINATES (A.U.)
----------------------------
  NO LB      ZA    FRAG     MASS         X           Y           Z
   0 C     6.0000    0    12.011   -5.427350    2.287438    0.441610
   1 F     9.0000    0    18.998   -7.293209    2.978775   -1.167057
   2 F     9.0000    0    18.998   -6.073107    3.121639    2.764443
   3 F     9.0000    0    18.998   -5.373058   -0.264184    0.497811
   4 C     6.0000    0    12.011   -2.904944    3.372235   -0.429421
   5 O     8.0000    0    15.999   -0.945109    2.980193    1.393938
   6 H     1.0000    0     1.008   -3.128838    5.409417   -0.725598
   7 H     1.0000    0     1.008   -2.383549    2.488259   -2.228100
   8 C     6.0000    0    12.011    1.493224    3.645508    0.466876
   9 F     9.0000    0    18.998    1.242174    5.280386   -1.502861
  10 F     9.0000    0    18.998    2.658693    4.975668    2.328823
  11 C     6.0000    0    12.011    3.114344    1.376458   -0.311125
  12 H     1.0000    0     1.008    4.974761    1.977617   -0.978311
  13 F     9.0000    0    18.998    3.438168   -0.262407    1.640150
  14 F     9.0000    0    18.998    1.968395    0.043237   -2.191137

--------------------------------
INTERNAL COORDINATES (ANGSTROEM)
--------------------------------
 C      0   0   0     0.000000000000     0.00000000     0.00000000
 F      1   0   0     1.354030662651     0.00000000     0.00000000
 F      1   2   0     1.350018476948   107.42744779     0.00000000
 F      1   2   3     1.350893018747   107.42207317   116.19513108
 C      1   2   3     1.524362459325   110.28426477   237.74224814
 O      5   1   2     1.431645722936   112.08398077   172.03258784
 H      5   1   2     1.095787609074   108.60561427    52.17303971
 H      5   1   2     1.095858462074   108.80499212   293.83998369
 C      6   5   1     1.424612900896   112.84374623   171.38969233
 F      9   6   5     1.361098459958   109.41410148    21.62649306
 F      9   6   5     1.358913334139   106.82139017   135.57893220
 C      9   6   5     1.532048694559   113.95409816   257.62632934
 H     12   9   6     1.093193605040   111.28350053   180.95521506
 F     12   9   6     1.359296736184   111.49955310   302.26247830
 F     12   9   6     1.362066029163   110.66718381    60.34819005

---------------------------
INTERNAL COORDINATES (A.U.)
---------------------------
 C      0   0   0     0.000000000000     0.00000000     0.00000000
 F      1   0   0     2.558747129343     0.00000000     0.00000000
 F      1   2   0     2.551165197165   107.42744779     0.00000000
 F      1   2   3     2.552817841658   107.42207317   116.19513108
 C      1   2   3     2.880627576955   110.28426477   237.74224814
 O      5   1   2     2.705418337148   112.08398077   172.03258784
 H      5   1   2     2.070738482094   108.60561427    52.17303971
 H      5   1   2     2.070872374861   108.80499212   293.83998369
 C      6   5   1     2.692128229545   112.84374623   171.38969233
 F      9   6   5     2.572103330623   109.41410148    21.62649306
 F      9   6   5     2.567974041256   106.82139017   135.57893220
 C      9   6   5     2.895152456548   113.95409816   257.62632934
 H     12   9   6     2.065836524879   111.28350053   180.95521506
 F     12   9   6     2.568698566120   111.49955310   302.26247830
 F     12   9   6     2.573931771436   110.66718381    60.34819005

---------------------
BASIS SET INFORMATION
---------------------
There are 4 groups of distinct atoms

 Group   1 Type C   : 7s4p1d contracted to 3s2p1d pattern {511/31/1}
 Group   2 Type F   : 7s4p1d contracted to 3s2p1d pattern {511/31/1}
 Group   3 Type O   : 7s4p1d contracted to 3s2p1d pattern {511/31/1}
 Group   4 Type H   : 4s1p contracted to 2s1p pattern {31/1}

Atom   0C    basis set group =>   1
Atom   1F    basis set group =>   2
Atom   2F    basis set group =>   2
Atom   3F    basis set group =>   2
Atom   4C    basis set group =>   1
Atom   5O    basis set group =>   3
Atom   6H    basis set group =>   4
Atom   7H    basis set group =>   4
Atom   8C    basis set group =>   1
Atom   9F    basis set group =>   2
Atom  10F    basis set group =>   2
Atom  11C    basis set group =>   1
Atom  12H    basis set group =>   4
Atom  13F    basis set group =>   2
Atom  14F    basis set group =>   2
---------------------------------
AUXILIARY/J BASIS SET INFORMATION
---------------------------------
There are 4 groups of distinct atoms

 Group   1 Type C   : 12s5p4d2f1g contracted to 6s4p3d1f1g pattern {711111/2111/211/2/1}
 Group   2 Type F   : 12s5p4d2f1g contracted to 6s4p3d1f1g pattern {711111/2111/211/2/1}
 Group   3 Type O   : 12s5p4d2f1g contracted to 6s4p3d1f1g pattern {711111/2111/211/2/1}
 Group   4 Type H   : 5s2p1d contracted to 3s1p1d pattern {311/2/1}

Atom   0C    basis set group =>   1
Atom   1F    basis set group =>   2
Atom   2F    basis set group =>   2
Atom   3F    basis set group =>   2
Atom   4C    basis set group =>   1
Atom   5O    basis set group =>   3
Atom   6H    basis set group =>   4
Atom   7H    basis set group =>   4
Atom   8C    basis set group =>   1
Atom   9F    basis set group =>   2
Atom  10F    basis set group =>   2
Atom  11C    basis set group =>   1
Atom  12H    basis set group =>   4
Atom  13F    basis set group =>   2
Atom  14F    basis set group =>   2
------------------------------------------------------------------------------
                             ORCA STARTUP CALCULATIONS
                           -- RI-GTO INTEGRALS CHOSEN --
------------------------------------------------------------------------------
------------------------------------------------------------------------------
                   ___                                                        
                  /   \      - P O W E R E D   B Y -                         
                 /     \                                                     
                 |  |  |   _    _      __       _____    __    __             
                 |  |  |  | |  | |    /  \     |  _  \  |  |  /  |          
                  \  \/   | |  | |   /    \    | | | |  |  | /  /          
                 / \  \   | |__| |  /  /\  \   | |_| |  |  |/  /          
                |  |  |   |  __  | /  /__\  \  |    /   |      \           
                |  |  |   | |  | | |   __   |  |    \   |  |\   \          
                \     /   | |  | | |  |  |  |  | |\  \  |  | \   \       
                 \___/    |_|  |_| |__|  |__|  |_| \__\ |__|  \__/        
                                                                              
                      - O R C A' S   B I G   F R I E N D -                    
                                      &                                       
                       - I N T E G R A L  F E E D E R -                       
                                                                              
 v1 FN, 2020, v2 2021, v3 2022-2024                                           
------------------------------------------------------------------------------


----------------------
SHARK INTEGRAL PACKAGE
----------------------

Number of atoms                             ...     15
Number of basis functions                   ...    183
Number of shells                            ...     81
Maximum angular momentum                    ...      2
Integral batch strategy                     ... SHARK/LIBINT Hybrid
RI-J (if used) integral strategy            ... SPLIT-RIJ (Revised 2003 algorithm where possible)
Printlevel                                  ...      1
Contraction scheme used                     ... SEGMENTED contraction
Prescreening option                         ... SCHWARTZ
   Thresh                                   ... 2.500e-11
   Tcut                                     ... 2.500e-12
   Tpresel                                  ... 2.500e-12 
Coulomb Range Separation                    ... NOT USED
Exchange Range Separation                   ... NOT USED
Multipole approximations                    ... NOT USED
Finite Nucleus Model                        ... NOT USED
CABS basis                                  ... NOT available
Auxiliary Coulomb fitting basis             ... AVAILABLE
   # of basis functions in Aux-J            ...    621
   # of shells in Aux-J                     ...    195
   Maximum angular momentum in Aux-J        ...      4
Auxiliary J/K fitting basis                 ... NOT available
Auxiliary Correlation fitting basis         ... NOT available
Auxiliary 'external' fitting basis          ... NOT available

Checking pre-screening integrals            ... done (  0.0 sec) Dimension = 81
   => SHARK Basis and OBASIS are compatible. Storing Pre-screening
Shell pair information
Shell pair cut-off parameter TPreSel        ...   2.5e-12
Total number of shell pairs                 ...      3321
Shell pairs after pre-screening             ...      2810
Total number of primitive shell pairs       ...     12885
Primitive shell pairs kept                  ...      7400
          la=0 lb=0:    741 shell pairs
          la=1 lb=0:    990 shell pairs
          la=1 lb=1:    348 shell pairs
          la=2 lb=0:    392 shell pairs
          la=2 lb=1:    280 shell pairs
          la=2 lb=2:     59 shell pairs

Checking whether 4 symmetric matrices of dimension 183 fit in memory
:Max Core in MB      =   4096.00
 MB in use           =      7.01
 MB left             =   4088.99
 MB needed           =      0.51
 Data fit in memory  = YES
Calculating RI/J V-Matrix + Cholesky decomp.... done (  0.0 sec)
Calculating Nuclear repulsion               ... done (  0.0 sec) ENN=    844.134696733197 Eh

Diagonalization of the overlap matrix:
Smallest eigenvalue                        ... 2.706e-03
Time for diagonalization                   ...    0.003 sec
Threshold for overlap eigenvalues          ... 1.000e-07
Number of eigenvalues below threshold      ... 0
Time for construction of square roots      ...    0.001 sec
Total time needed                          ...    0.005 sec

-------------------
DFT GRID GENERATION
-------------------

General Integration Accuracy     IntAcc      ... 4.388
Radial Grid Type                 RadialGrid  ... OptM3 with GC (2021)
Angular Grid (max. ang.)         AngularGrid ... 4 (Lebedev-302)
Angular grid pruning method      GridPruning ... 4 (adaptive)
Weight generation scheme         WeightScheme... mBecke (2022)
Basis function cutoff            BFCut       ... 1.0000e-11
Integration weight cutoff        WCut        ... 1.0000e-14
Partially contracted basis set               ... off
Rotationally invariant grid construction     ... off
Angular grids for H and He will be reduced by one unit

Total number of grid points                  ...    82606
Total number of batches                      ...     1297
Average number of points per batch           ...       63
Average number of grid points per atom       ...     5507

--------------------
COSX GRID GENERATION
--------------------

GRIDX 1
-------
General Integration Accuracy     IntAcc      ... 3.816
Radial Grid Type                 RadialGrid  ... OptM3 with GC (2021)
Angular Grid (max. ang.)         AngularGrid ... 1 (Lebedev-50)
Angular grid pruning method      GridPruning ... 4 (adaptive)
Weight generation scheme         WeightScheme... mBecke (2022)
Basis function cutoff            BFCut       ... 1.0000e-11
Integration weight cutoff        WCut        ... 1.0000e-14
Partially contracted basis set               ... on
Rotationally invariant grid construction     ... off
Angular grids for H and He will be reduced by one unit

Total number of grid points                  ...    10415
Total number of batches                      ...       89
Average number of points per batch           ...      117
Average number of grid points per atom       ...      694
UseSFitting                                  ... on

GRIDX 2
-------
General Integration Accuracy     IntAcc      ... 4.020
Radial Grid Type                 RadialGrid  ... OptM3 with GC (2021)
Angular Grid (max. ang.)         AngularGrid ... 2 (Lebedev-110)
Angular grid pruning method      GridPruning ... 4 (adaptive)
Weight generation scheme         WeightScheme... mBecke (2022)
Basis function cutoff            BFCut       ... 1.0000e-11
Integration weight cutoff        WCut        ... 1.0000e-14
Partially contracted basis set               ... on
Rotationally invariant grid construction     ... off
Angular grids for H and He will be reduced by one unit

Total number of grid points                  ...    24170
Total number of batches                      ...      197
Average number of points per batch           ...      122
Average number of grid points per atom       ...     1611
UseSFitting                                  ... on

GRIDX 3
-------
General Integration Accuracy     IntAcc      ... 4.338
Radial Grid Type                 RadialGrid  ... OptM3 with GC (2021)
Angular Grid (max. ang.)         AngularGrid ... 3 (Lebedev-194)
Angular grid pruning method      GridPruning ... 4 (adaptive)
Weight generation scheme         WeightScheme... mBecke (2022)
Basis function cutoff            BFCut       ... 1.0000e-11
Integration weight cutoff        WCut        ... 1.0000e-14
Partially contracted basis set               ... on
Rotationally invariant grid construction     ... off
Angular grids for H and He will be reduced by one unit

Total number of grid points                  ...    53568
Total number of batches                      ...      426
Average number of points per batch           ...      125
Average number of grid points per atom       ...     3571
UseSFitting                                  ... on
Grids setup in   1.1 sec
Initializing property integral containers    ... done (  0.0 sec)

SHARK setup successfully completed in   1.2 seconds

Maximum memory used throughout the entire STARTUP-calculation: 33.8 MB
-------------------------------------------------------------------------------
                                 ORCA GUESS
                   Start orbitals & Density for SCF / CASSCF
-------------------------------------------------------------------------------

------------
SCF SETTINGS
------------
Hamiltonian:
 Density Functional     Method          .... DFT(GTOs)
 Exchange Functional    Exchange        .... B88
   X-Alpha parameter    XAlpha          ....  0.666667
   Becke's b parameter  XBeta           ....  0.004200
 Correlation Functional Correlation     .... LYP
 LDA part of GGA corr.  LDAOpt          .... VWN-5
 Gradients option       PostSCFGGA      .... off
 Hybrid DFT is turned on
   Fraction HF Exchange ScalHFX         ....  0.200000
   Scaling of DF-GGA-X  ScalDFX         ....  0.720000
   Scaling of DF-GGA-C  ScalDFC         ....  0.810000
   Scaling of DF-LDA-C  ScalLDAC        ....  1.000000
   Perturbative correction              ....  0.000000
   NL short-range parameter             ....  4.800000
 RI-approximation to the Coulomb term is turned on
   Number of AuxJ basis functions       .... 621
   RIJ-COSX (HFX calculated with COS-X)).... on


General Settings:
 Integral files         IntName         .... TFTFE_C3
 Hartree-Fock type      HFTyp           .... RHF
 Total Charge           Charge          ....    0
 Multiplicity           Mult            ....    1
 Number of Electrons    NEL             ....   98
 Basis Dimension        Dim             ....  183
 Nuclear Repulsion      ENuc            ....    844.1346967332 Eh

Convergence Acceleration:
 AO-DIIS                CNVDIIS         .... on
   Start iteration      DIISMaxIt       ....    12
   Startup error        DIISStart       ....  0.200000
   # of expansion vecs  DIISMaxEq       ....     5
   Bias factor          DIISBfac        ....   1.050
   Max. coefficient     DIISMaxC        ....  10.000
 MO-DIIS                CNVKDIIS        .... off
 Trust-Rad. Augm. Hess. CNVTRAH         .... auto
   Auto Start mean grad. ratio tolernc. ....  1.125000
   Auto Start start iteration           ....    50
   Auto Start num. interpolation iter.  ....    10
   Max. Number of Micro iterations      ....    24
   Max. Number of Macro iterations      .... Maxiter - #DIIS iter
   Number of Davidson start vectors     ....     2
   Converg. threshold    (grad. norm)   ....   1.000e-05
   Grad. Scal. Fac. for Micro threshold ....   0.100
   Minimum threshold for Micro iter.    ....   1.000e-02
   NR start threshold (gradient norm)   ....   1.000e-04
   Initial trust radius                 ....   0.400
   Minimum AH scaling param. (alpha)    ....   1.000
   Maximum AH scaling param. (alpha)    .... 1000.000
   Quad. conv. algorithm                .... NR
   White noise on init. David. guess    .... on
   Maximum white noise                  ....   0.010
   Pseudo random numbers                .... off
   Inactive MOs                         .... canonical
   Orbital update algorithm             .... Taylor
   Preconditioner                       .... Diag
   Full preconditioner red. dimension   ....   250
 SOSCF                 CNVSOSCF           .... on
   Start iteration     SOSCFMaxIt         ....   150
   Startup grad/error  SOSCFStart         ....  0.003300
   Hessian update      SOSCFHessUp        .... L-BFGS
   Autom. constraints  SOSCFAutoConstrain .... off
 Level Shifting         CNVShift        .... on
   Level shift para.    LevelShift      ....    0.2500
   Turn off err/grad.   ShiftErr        ....    0.0010
 Zerner damping         CNVZerner       .... off
 Static damping         CNVDamp         .... on
   Fraction old density DampFac         ....    0.7000
   Max. Damping (<1)    DampMax         ....    0.9800
   Min. Damping (>=0)   DampMin         ....    0.0000
   Turn off err/grad.   DampErr         ....    0.1000

SCF Procedure:
 Maximum # iterations   MaxIter         ....   125
 SCF integral mode      SCFMode         .... Direct
   Integral package                     .... SHARK and LIBINT hybrid scheme
 Reset frequency        DirectResetFreq ....    20
 Integral Threshold     Thresh          ....  2.500e-11 Eh
 Primitive CutOff       TCut            ....  2.500e-12 Eh

Convergence Tolerance:
 Convergence Check Mode ConvCheckMode   .... Total+1el-Energy
 Convergence forced     ConvForced      .... 0
 Energy Change          TolE            ....  1.000e-08 Eh
 1-El. energy change                    ....  1.000e-05 Eh
 Orbital Gradient       TolG            ....  1.000e-05
 Orbital Rotation angle TolX            ....  1.000e-05
 DIIS Error             TolErr          ....  5.000e-07

------------------------------
INITIAL GUESS: MODEL POTENTIAL
------------------------------
Loading Hartree-Fock densities                     ... done
Calculating cut-offs                               ... done
Initializing the effective Hamiltonian             ... done
Setting up the integral package (SHARK)            ... done
Starting the Coulomb interaction                   ... done (   0.1 sec)
Making the grid                                    ... done (   0.2 sec)
Mapping shells                                     ... done
Starting the XC term evaluation                    ... done (   0.1 sec)
  promolecular density results
     # of electrons  =     97.999328270
     EX              =   -100.044189214
     EC              =     -3.640173699
     EX+EC           =   -103.684362913
Transforming the Hamiltonian                       ... done (   0.0 sec)
Diagonalizing the Hamiltonian                      ... done (   0.0 sec)
Back transforming the eigenvectors                 ... done (   0.0 sec)
Now organizing SCF variables                       ... done
                      ------------------
                      INITIAL GUESS DONE (   0.4 sec)
                      ------------------
             **** ENERGY FILE WAS UPDATED (TFTFE_C3.en.tmp) ****
Finished Guess after   0.4 sec
Maximum memory used throughout the entire GUESS-calculation: 12.1 MB

-------------------------------------------------------------------------------------------
                                      ORCA LEAN-SCF
                              memory conserving SCF solver
-------------------------------------------------------------------------------------------

----------------------------------------D-I-I-S--------------------------------------------
Iteration    Energy (Eh)           Delta-E    RMSDP     MaxDP     DIISErr   Damp  Time(sec)
-------------------------------------------------------------------------------------------
               ***  Starting incremental Fock matrix formation  ***
    1    -927.0551056105474572     0.00e+00  2.84e-03  8.34e-02  1.90e-01  0.700   3.2
    2    -927.1559084186595783    -1.01e-01  1.57e-03  4.36e-02  7.72e-02  0.700   1.7
                               ***Turning on AO-DIIS***
    3    -927.1896156508643116    -3.37e-02  4.48e-04  1.22e-02  2.21e-02  0.700   1.6
    4    -927.2120522866524652    -2.24e-02  7.70e-04  1.47e-02  1.39e-02  0.000   1.5
                              *** Initializing SOSCF ***
---------------------------------------S-O-S-C-F--------------------------------------
Iteration    Energy (Eh)           Delta-E    RMSDP     MaxDP     MaxGrad    Time(sec)
--------------------------------------------------------------------------------------
    5    -927.2635096810489586    -5.15e-02  1.40e-04  3.73e-03  2.37e-03     1.6
               *** Restarting incremental Fock matrix formation ***
    6    -927.2635228101186158    -1.31e-05  5.81e-05  1.48e-03  2.72e-04     3.4
    7    -927.2635223057735629     5.04e-07  2.88e-05  6.05e-04  3.75e-04     2.6
    8    -927.2635281054257348    -5.80e-06  6.45e-06  1.73e-04  3.63e-05     2.5
    9    -927.2635281356261885    -3.02e-08  2.39e-06  7.12e-05  1.90e-05     2.1
   10    -927.2635281624917525    -2.69e-08  9.82e-07  2.19e-05  8.57e-06     1.9
   11    -927.2635281660012652    -3.51e-09  4.75e-07  1.13e-05  6.48e-06     1.8
                 **** Energy Check signals convergence ****

               *****************************************************
               *                     SUCCESS                       *
               *           SCF CONVERGED AFTER  11 CYCLES          *
               *****************************************************

Recomputing exchange energy using gridx3       ... done (    5.291 sec)
Old exchange energy                            :    -20.068273436 Eh
New exchange energy                            :    -20.068330933 Eh
Exchange energy change after final integration :     -0.000057497 Eh
Total energy after final integration           :   -927.263585659 Eh
             **** ENERGY FILE WAS UPDATED (TFTFE_C3.en.tmp) ****

----------------
TOTAL SCF ENERGY
----------------

Total Energy       :       -927.26358565886255 Eh          -25232.12494 eV

Components:
Nuclear Repulsion  :        844.13469673319730 Eh           22970.07287 eV
Electronic Energy  :      -1771.39822489493099 Eh          -48202.19625 eV
One Electron Energy:      -2965.17313302961111 Eh          -80686.46297 eV
Two Electron Energy:       1193.77490813468012 Eh           32484.26672 eV

Virial components:
Potential Energy   :      -1848.90973854685353 Eh          -50311.39177 eV
Kinetic Energy     :        921.64615288799098 Eh           25079.26683 eV
Virial Ratio       :          2.00609499942388

DFT components:
N(Alpha)           :       49.000014008068 electrons
N(Beta)            :       49.000014008068 electrons
N(Total)           :       98.000028016136 electrons
E(X)               :      -79.943440793459 Eh       
E(C)               :       -4.256983788461 Eh       
E(XC)              :      -84.200424581920 Eh       

---------------
SCF CONVERGENCE
---------------

  Last Energy change         ...    3.5095e-09  Tolerance :   1.0000e-08
  Last MAX-Density change    ...    1.1317e-05  Tolerance :   1.0000e-07
  Last RMS-Density change    ...    4.7509e-07  Tolerance :   5.0000e-09
  Last DIIS Error            ...    2.3692e-03  Tolerance :   5.0000e-07
  Last Orbital Gradient      ...    6.4778e-06  Tolerance :   1.0000e-05
  Last Orbital Rotation      ...    3.5297e-06  Tolerance :   1.0000e-05


----------------
ORBITAL ENERGIES
----------------

  NO   OCC          E(Eh)            E(eV) 
   0   2.0000     -24.744836      -673.3412 
   1   2.0000     -24.732211      -672.9977 
   2   2.0000     -24.728185      -672.8881 
   3   2.0000     -24.727593      -672.8720 
   4   2.0000     -24.722684      -672.7384 
   5   2.0000     -24.722255      -672.7268 
   6   2.0000     -24.721341      -672.7019 
   7   2.0000     -19.198091      -522.4066 
   8   2.0000     -10.444349      -284.2052 
   9   2.0000     -10.438468      -284.0451 
  10   2.0000     -10.383455      -282.5482 
  11   2.0000     -10.283768      -279.8355 
  12   2.0000      -1.299227       -35.3538 
  13   2.0000      -1.293070       -35.1862 
  14   2.0000      -1.264035       -34.3962 
  15   2.0000      -1.220477       -33.2109 
  16   2.0000      -1.210235       -32.9322 
  17   2.0000      -1.208145       -32.8753 
  18   2.0000      -1.201573       -32.6965 
  19   2.0000      -1.075630       -29.2694 
  20   2.0000      -0.809839       -22.0368 
  21   2.0000      -0.768616       -20.9151 
  22   2.0000      -0.685835       -18.6625 
  23   2.0000      -0.661125       -17.9901 
  24   2.0000      -0.618655       -16.8345 
  25   2.0000      -0.611972       -16.6526 
  26   2.0000      -0.607830       -16.5399 
  27   2.0000      -0.598125       -16.2758 
  28   2.0000      -0.590097       -16.0573 
  29   2.0000      -0.571708       -15.5570 
  30   2.0000      -0.565147       -15.3784 
  31   2.0000      -0.556768       -15.1504 
  32   2.0000      -0.498040       -13.5524 
  33   2.0000      -0.484727       -13.1901 
  34   2.0000      -0.477044       -12.9810 
  35   2.0000      -0.471032       -12.8174 
  36   2.0000      -0.468467       -12.7476 
  37   2.0000      -0.464871       -12.6498 
  38   2.0000      -0.451477       -12.2853 
  39   2.0000      -0.440400       -11.9839 
  40   2.0000      -0.435994       -11.8640 
  41   2.0000      -0.429567       -11.6891 
  42   2.0000      -0.427537       -11.6339 
  43   2.0000      -0.423100       -11.5131 
  44   2.0000      -0.415241       -11.2993 
  45   2.0000      -0.414262       -11.2727 
  46   2.0000      -0.393192       -10.6993 
  47   2.0000      -0.372077       -10.1247 
  48   2.0000      -0.326923        -8.8960 
  49   0.0000       0.037677         1.0252 
  50   0.0000       0.041548         1.1306 
  51   0.0000       0.070649         1.9225 
  52   0.0000       0.083730         2.2784 
  53   0.0000       0.091547         2.4911 
  54   0.0000       0.116877         3.1804 
  55   0.0000       0.168995         4.5986 
  56   0.0000       0.182072         4.9544 
  57   0.0000       0.196864         5.3569 
  58   0.0000       0.200611         5.4589 
  59   0.0000       0.206495         5.6190 
*Only the first 10 virtual orbitals were printed.

                    ********************************
                    * MULLIKEN POPULATION ANALYSIS *
                    ********************************

-----------------------
MULLIKEN ATOMIC CHARGES
-----------------------
   0 C :    0.497002
   1 F :   -0.178923
   2 F :   -0.170600
   3 F :   -0.172935
   4 C :    0.176954
   5 O :   -0.371501
   6 H :    0.043103
   7 H :    0.039174
   8 C :    0.426825
   9 F :   -0.193286
  10 F :   -0.168703
  11 C :    0.451880
  12 H :    0.025116
  13 F :   -0.196770
  14 F :   -0.207337
Sum of atomic charges:    0.0000000

--------------------------------
MULLIKEN REDUCED ORBITAL CHARGES
--------------------------------
  0 C s       :     2.965775  s :     2.965775
      pz      :     0.725004  p :     2.363193
      px      :     0.889214
      py      :     0.748975
      dz2     :     0.039070  d :     0.174030
      dxz     :     0.035541
      dyz     :     0.033657
      dx2y2   :     0.037878
      dxy     :     0.027883

  1 F s       :     3.899999  s :     3.899999
      pz      :     1.733996  p :     5.270992
      px      :     1.666154
      py      :     1.870841
      dz2     :     0.001234  d :     0.007932
      dxz     :     0.002995
      dyz     :     0.000949
      dx2y2   :     0.001479
      dxy     :     0.001276

  2 F s       :     3.899431  s :     3.899431
      pz      :     1.534919  p :     5.263088
      px      :     1.877198
      py      :     1.850972
      dz2     :     0.003241  d :     0.008081
      dxz     :     0.001950
      dyz     :     0.002191
      dx2y2   :     0.000355
      dxy     :     0.000343

  3 F s       :     3.899438  s :     3.899438
      pz      :     1.894703  p :     5.265455
      px      :     1.909899
      py      :     1.460853
      dz2     :     0.001183  d :     0.008041
      dxz     :     0.000055
      dyz     :     0.001637
      dx2y2   :     0.003428
      dxy     :     0.001739

  4 C s       :     3.006280  s :     3.006280
      pz      :     0.885281  p :     2.759945
      px      :     0.836536
      py      :     1.038127
      dz2     :     0.011159  d :     0.056821
      dxz     :     0.015424
      dyz     :     0.008293
      dx2y2   :     0.012439
      dxy     :     0.009505

  5 O s       :     3.789519  s :     3.789519
      pz      :     1.568130  p :     4.567052
      px      :     1.178893
      py      :     1.820028
      dz2     :     0.002820  d :     0.014930
      dxz     :     0.005605
      dyz     :     0.002147
      dx2y2   :     0.002052
      dxy     :     0.002305

  6 H s       :     0.934772  s :     0.934772
      pz      :     0.003887  p :     0.022125
      px      :     0.003184
      py      :     0.015054

  7 H s       :     0.938403  s :     0.938403
      pz      :     0.012095  p :     0.022423
      px      :     0.003622
      py      :     0.006706

  8 C s       :     3.013775  s :     3.013775
      pz      :     0.709383  p :     2.403516
      px      :     0.840588
      py      :     0.853546
      dz2     :     0.029730  d :     0.155883
      dxz     :     0.031750
      dyz     :     0.037504
      dx2y2   :     0.025966
      dxy     :     0.030933

  9 F s       :     3.909830  s :     3.909830
      pz      :     1.662038  p :     5.275589
      px      :     1.893594
      py      :     1.719957
      dz2     :     0.001790  d :     0.007867
      dxz     :     0.000980
      dyz     :     0.003262
      dx2y2   :     0.001041
      dxy     :     0.000794

 10 F s       :     3.901994  s :     3.901994
      pz      :     1.670126  p :     5.258847
      px      :     1.817323
      py      :     1.771398
      dz2     :     0.001569  d :     0.007862
      dxz     :     0.001935
      dyz     :     0.002404
      dx2y2   :     0.000828
      dxy     :     0.001126

 11 C s       :     3.021812  s :     3.021812
      pz      :     0.674971  p :     2.408313
      px      :     0.939224
      py      :     0.794118
      dz2     :     0.026218  d :     0.117995
      dxz     :     0.022111
      dyz     :     0.034126
      dx2y2   :     0.014916
      dxy     :     0.020624

 12 H s       :     0.954710  s :     0.954710
      pz      :     0.003271  p :     0.020174
      px      :     0.013418
      py      :     0.003485

 13 F s       :     3.908358  s :     3.908358
      pz      :     1.657817  p :     5.280436
      px      :     1.913441
      py      :     1.709178
      dz2     :     0.001749  d :     0.007975
      dxz     :     0.001108
      dyz     :     0.003229
      dx2y2   :     0.000995
      dxy     :     0.000894

 14 F s       :     3.907931  s :     3.907931
      pz      :     1.685138  p :     5.291618
      px      :     1.829282
      py      :     1.777198
      dz2     :     0.001601  d :     0.007789
      dxz     :     0.001798
      dyz     :     0.002370
      dx2y2   :     0.000841
      dxy     :     0.001179



                     *******************************
                     * LOEWDIN POPULATION ANALYSIS *
                     *******************************

----------------------
LOEWDIN ATOMIC CHARGES
----------------------
   0 C :    0.175756
   1 F :   -0.067530
   2 F :   -0.062079
   3 F :   -0.064702
   4 C :    0.054160
   5 O :   -0.153854
   6 H :    0.030528
   7 H :    0.028687
   8 C :    0.162637
   9 F :   -0.066592
  10 F :   -0.062744
  11 C :    0.170689
  12 H :    0.018466
  13 F :   -0.077612
  14 F :   -0.085811

-------------------------------
LOEWDIN REDUCED ORBITAL CHARGES
-------------------------------
  0 C s       :     2.862690  s :     2.862690
      pz      :     0.810825  p :     2.595863
      px      :     0.957906
      py      :     0.827131
      dz2     :     0.083648  d :     0.365691
      dxz     :     0.075519
      dyz     :     0.067441
      dx2y2   :     0.082847
      dxy     :     0.056236

  1 F s       :     3.738954  s :     3.738954
      pz      :     1.754641  p :     5.316113
      px      :     1.687503
      py      :     1.873970
      dz2     :     0.001597  d :     0.012462
      dxz     :     0.005313
      dyz     :     0.001441
      dx2y2   :     0.002278
      dxy     :     0.001833

  2 F s       :     3.737435  s :     3.737435
      pz      :     1.580885  p :     5.311889
      px      :     1.873930
      py      :     1.857075
      dz2     :     0.005467  d :     0.012756
      dxz     :     0.002938
      dyz     :     0.003405
      dx2y2   :     0.000472
      dxy     :     0.000474

  3 F s       :     3.737945  s :     3.737945
      pz      :     1.894690  p :     5.314059
      px      :     1.903401
      py      :     1.515967
      dz2     :     0.002130  d :     0.012698
      dxz     :     0.000069
      dyz     :     0.001993
      dx2y2   :     0.006249
      dxy     :     0.002257

  4 C s       :     2.862214  s :     2.862214
      pz      :     0.957492  p :     2.950806
      px      :     0.911064
      py      :     1.082250
      dz2     :     0.026889  d :     0.132820
      dxz     :     0.035233
      dyz     :     0.018909
      dx2y2   :     0.030529
      dxy     :     0.021259

  5 O s       :     3.484465  s :     3.484465
      pz      :     1.602426  p :     4.642554
      px      :     1.229193
      py      :     1.810935
      dz2     :     0.004258  d :     0.026835
      dxz     :     0.010602
      dyz     :     0.002522
      dx2y2   :     0.005092
      dxy     :     0.004361

  6 H s       :     0.900810  s :     0.900810
      pz      :     0.011610  p :     0.068662
      px      :     0.011209
      py      :     0.045843

  7 H s       :     0.902040  s :     0.902040
      pz      :     0.038311  p :     0.069274
      px      :     0.012741
      py      :     0.018221

  8 C s       :     2.878923  s :     2.878923
      pz      :     0.799532  p :     2.629767
      px      :     0.901476
      py      :     0.928759
      dz2     :     0.060994  d :     0.328673
      dxz     :     0.065775
      dyz     :     0.082562
      dx2y2   :     0.051526
      dxy     :     0.067816

  9 F s       :     3.739147  s :     3.739147
      pz      :     1.690526  p :     5.315002
      px      :     1.889268
      py      :     1.735208
      dz2     :     0.002634  d :     0.012443
      dxz     :     0.001391
      dyz     :     0.005785
      dx2y2   :     0.001603
      dxy     :     0.001031

 10 F s       :     3.740602  s :     3.740602
      pz      :     1.698880  p :     5.309733
      px      :     1.829415
      py      :     1.781438
      dz2     :     0.002161  d :     0.012409
      dxz     :     0.003220
      dyz     :     0.004098
      dx2y2   :     0.001144
      dxy     :     0.001785

 11 C s       :     2.881288  s :     2.881288
      pz      :     0.778740  p :     2.688635
      px      :     1.022780
      py      :     0.887115
      dz2     :     0.055096  d :     0.259388
      dxz     :     0.047352
      dyz     :     0.074834
      dx2y2   :     0.031992
      dxy     :     0.050114

 12 H s       :     0.913592  s :     0.913592
      pz      :     0.012110  p :     0.067942
      px      :     0.043800
      py      :     0.012033

 13 F s       :     3.740060  s :     3.740060
      pz      :     1.687231  p :     5.325281
      px      :     1.914506
      py      :     1.723544
      dz2     :     0.002507  d :     0.012271
      dxz     :     0.001517
      dyz     :     0.005552
      dx2y2   :     0.001470
      dxy     :     0.001224

 14 F s       :     3.740420  s :     3.740420
      pz      :     1.707129  p :     5.333364
      px      :     1.843111
      py      :     1.783124
      dz2     :     0.002200  d :     0.012027
      dxz     :     0.002977
      dyz     :     0.003891
      dx2y2   :     0.001117
      dxy     :     0.001841



                      *****************************
                      * MAYER POPULATION ANALYSIS *
                      *****************************

  NA   - Mulliken gross atomic population
  ZA   - Total nuclear charge
  QA   - Mulliken gross atomic charge
  VA   - Mayer's total valence
  BVA  - Mayer's bonded valence
  FA   - Mayer's free valence

  ATOM       NA         ZA         QA         VA         BVA        FA
  0 C      5.5030     6.0000     0.4970     4.4619     4.4619     0.0000
  1 F      9.1789     9.0000    -0.1789     1.1727     1.1727     0.0000
  2 F      9.1706     9.0000    -0.1706     1.1792     1.1792     0.0000
  3 F      9.1729     9.0000    -0.1729     1.1762     1.1762     0.0000
  4 C      5.8230     6.0000     0.1770     3.8901     3.8901    -0.0000
  5 O      8.3715     8.0000    -0.3715     2.0644     2.0644    -0.0000
  6 H      0.9569     1.0000     0.0431     1.0021     1.0021     0.0000
  7 H      0.9608     1.0000     0.0392     1.0160     1.0160    -0.0000
  8 C      5.5732     6.0000     0.4268     4.2854     4.2854    -0.0000
  9 F      9.1933     9.0000    -0.1933     1.1520     1.1520    -0.0000
 10 F      9.1687     9.0000    -0.1687     1.1854     1.1854    -0.0000
 11 C      5.5481     6.0000     0.4519     4.1046     4.1046     0.0000
 12 H      0.9749     1.0000     0.0251     0.9925     0.9925    -0.0000
 13 F      9.1968     9.0000    -0.1968     1.1560     1.1560    -0.0000
 14 F      9.2073     9.0000    -0.2073     1.1480     1.1480     0.0000

  Mayer bond orders larger than 0.100000
B(  0-C ,  1-F ) :   1.1136 B(  0-C ,  2-F ) :   1.1421 B(  0-C ,  3-F ) :   1.1379 
B(  0-C ,  4-C ) :   1.0044 B(  4-C ,  5-O ) :   0.9326 B(  4-C ,  6-H ) :   0.9374 
B(  4-C ,  7-H ) :   0.9312 B(  5-O ,  8-C ) :   1.0603 B(  8-C ,  9-F ) :   1.0492 
B(  8-C , 10-F ) :   1.1346 B(  8-C , 11-C ) :   0.9344 B( 11-C , 12-H ) :   0.9456 
B( 11-C , 13-F ) :   1.1051 B( 11-C , 14-F ) :   1.0693 

-------
TIMINGS
-------

Total SCF time: 0 days 0 hours 0 min 30 sec 

Total time                  ....      30.975 sec
Sum of individual times     ....      29.369 sec  ( 94.8%)

SCF preparation             ....       0.072 sec  (  0.2%)
Fock matrix formation       ....      29.199 sec  ( 94.3%)
  Startup                   ....       0.002 sec  (  0.0% of F)
  Split-RI-J                ....       2.395 sec  (  8.2% of F)
  Chain of spheres X        ....      23.700 sec  ( 81.2% of F)
  XC integration            ....       4.623 sec  ( 15.8% of F)
    XC Preparation          ....       0.000 sec  (  0.0% of XC)
    Basis function eval.    ....       1.837 sec  ( 39.7% of XC)
    Density eval.           ....       1.162 sec  ( 25.1% of XC)
    XC-Functional eval.     ....       0.312 sec  (  6.7% of XC)
    XC-Potential eval.      ....       1.143 sec  ( 24.7% of XC)
Diagonalization             ....       0.000 sec  (  0.0%)
Density matrix formation    ....       0.012 sec  (  0.0%)
Total Energy calculation    ....       0.002 sec  (  0.0%)
Population analysis         ....       0.004 sec  (  0.0%)
Orbital Transformation      ....       0.011 sec  (  0.0%)
Orbital Orthonormalization  ....       0.000 sec  (  0.0%)
DIIS solution               ....       0.045 sec  (  0.1%)
SOSCF solution              ....       0.025 sec  (  0.1%)
Finished LeanSCF after  31.0 sec

Maximum memory used throughout the entire LEANSCF-calculation: 20.0 MB

------------------------------------------------------------------------------
                         ORCA PROPERTY INTEGRAL CALCULATIONS
------------------------------------------------------------------------------

GBWName                                   ... TFTFE_C3.gbw
Number of atoms                           ...     15
Number of basis functions                 ...    183
Max core memory                           ...   4096 MB

Dipole integrals                          ... YES
Quadrupole integrals                      ...  NO
Linear momentum integrals                 ...  NO
Angular momentum integrals                ...  NO
Higher moments length integrals           ...  NO
Higher moments velocity integrals         ...  NO
Kinetic energy integrals                  ...  NO
GIAO right hand sides                     ...  NO
GIAO dipole derivative integrals          ...  NO
SOC integrals                             ...  NO
EPR diamagnetic integrals (GIAO)          ...  NO
EPR gauge integrals                       ...  NO
Field gradient integrals                  ...  NO (   0 nuclei)
Spin-dipole/Fermi contact integrals       ...  NO (   0 nuclei)
Contact density integrals                 ...  NO (   0 nuclei)
Nucleus-orbit integrals                   ...  NO (   0 nuclei)
Geometric perturbations                   ...  NO (  15 nuclei)

Choice of electric origin   ... Center of mass
Position of electric origin ... ( -1.1976,  2.4368,  0.3268) 
Choice of magnetic origin   ... GIAO
Position of magnetic origin ... (  0.0000,  0.0000,  0.0000) 

Calculating integrals                     ... Electric Dipole (Length)     done (  0.0 sec)

Property integrals calculated in   0.0 sec

Maximum memory used throughout the entire PROPINT-calculation: 12.4 MB

-------------------------   --------------------
FINAL SINGLE POINT ENERGY      -927.263585658863
-------------------------   --------------------

------------------------------------------------------------------------------
                         ORCA SCF GRADIENT CALCULATION
------------------------------------------------------------------------------

Nuc. rep. gradient        (SHARK) ... done (  0.0 sec)
HCore & Overlap gradient  (SHARK) ... done (  0.1 sec)
Split-RIJ-J gradient      (SHARK) ... done (  0.8 sec)
done ( 16.7 sec)
XC gradient                       ... done (  3.0 sec)

------------------
CARTESIAN GRADIENT
------------------

   1   C   :    0.003691994    0.007446317   -0.010057551
   2   F   :   -0.011867837    0.001149541   -0.004348348
   3   F   :   -0.003780121    0.003841520    0.010010177
   4   F   :    0.000265932   -0.010245244   -0.001097600
   5   C   :   -0.001674117   -0.003105611   -0.001609378
   6   O   :   -0.023076421   -0.001150442    0.017323696
   7   H   :    0.005629496   -0.001971516    0.002146664
   8   H   :    0.004086629    0.001908587    0.003290003
   9   C   :    0.035625689   -0.017303320   -0.025527646
  10   F   :   -0.009018005    0.009918544    0.000585498
  11   F   :    0.001252132    0.015398366    0.008699134
  12   C   :   -0.002012639    0.024271140   -0.001688361
  13   H   :   -0.005597907   -0.005408584    0.001858384
  14   F   :    0.003450488   -0.013847764    0.002444782
  15   F   :    0.003024685   -0.010901533   -0.002029454

Difference to translation invariance:
           :   -0.0000000002   -0.0000000000    0.0000000001

Difference to rotation invariance:
           :   -0.0006488591   -0.0005215594    0.0003878958

Norm of the Cartesian gradient     ...    0.0721358727
RMS gradient                       ...    0.0107533810
MAX gradient                       ...    0.0356256890

-------
TIMINGS
-------

Total SCF gradient time     ....       20.712 sec

Densities                   ....       0.000 sec  (  0.0%)
One electron gradient       ....       0.124 sec  (  0.6%)
RI-J Coulomb gradient       ....       0.838 sec  (  4.0%)
COSX gradient               ....      16.749 sec  ( 80.9%)
XC gradient                 ....       3.000 sec  ( 14.5%)

Maximum memory used throughout the entire SCFGRAD-calculation: 23.9 MB
------------------------------------------------------------------------------
                         ORCA GEOMETRY RELAXATION STEP
------------------------------------------------------------------------------

Reading the OPT-File                    .... done
Getting information on internals        .... done
Copying old internal coords+grads       .... done
Making the new internal coordinates     .... (2022 redundants) done
Validating the new internal coordinates .... (2022 redundants) done
Calculating the B-matrix                .... done
Calculating the G,G- and P matrices     .... done
Transforming gradient to internals      .... done
Projecting the internal gradient        .... done
Number of atoms                         ....  15
Number of internal coordinates          ....  57
Current Energy                          ....  -927.263585659 Eh
Current gradient norm                   ....     0.072135873 Eh/bohr
Maximum allowed component of the step   ....  0.300
Current trust radius                    ....  0.300
Evaluating the initial hessian          ....  (Almloef) done
Projecting the Hessian                  .... done
Forming the augmented Hessian           .... done
Diagonalizing the augmented Hessian     .... done
Last element of RFO vector              ....  0.976650925
Lowest eigenvalues of augmented Hessian:
 -0.011897270  0.010986890  0.011639295  0.018198479  0.019656662
Length of the computed step             ....  0.219968485
The final length of the internal step   ....  0.219968485
Converting the step to Cartesian space:
 Initial RMS(Int)=    0.0291355375
Transforming coordinates:
 Iter   0:  RMS(Cart)=    0.1160550129 RMS(Int)=    0.0288059881
 Iter   5:  RMS(Cart)=    0.0000003626 RMS(Int)=    0.0000002881
done
Storing new coordinates                 .... done

                                .--------------------.
          ----------------------|Geometry convergence|-------------------------
          Item                value                   Tolerance       Converged
          ---------------------------------------------------------------------
          RMS gradient        0.0090188676            0.0001000000      NO
          MAX gradient        0.0301296690            0.0003000000      NO
          RMS step            0.0291355375            0.0020000000      NO
          MAX step            0.1075546617            0.0040000000      NO
          -------------------------------------------------------------------------
          ........................................................
          Max(Bonds)      0.0316      Max(Angles)    3.74
          Max(Dihed)        6.16      Max(Improp)    0.00
          ---------------------------------------------------------------------

The optimization has not yet converged - more geometry cycles are needed


    ---------------------------------------------------------------------------
                         Redundant Internal Coordinates
                            (Angstroem and degrees)

        Definition                    Value    dE/dq     Step     New-Value
    ----------------------------------------------------------------------------
     1. B(F   1,C   0)                1.3540  0.011696 -0.0102    1.3438   
     2. B(F   2,C   0)                1.3500  0.011333 -0.0098    1.3403   
     3. B(F   3,C   0)                1.3509  0.010218 -0.0088    1.3421   
     4. B(C   4,C   0)                1.5244  0.007750 -0.0104    1.5139   
     5. B(O   5,C   4)                1.4316  0.003595 -0.0039    1.4278   
     6. B(H   6,C   4)                1.0958 -0.002850  0.0041    1.0999   
     7. B(H   7,C   4)                1.0959 -0.002654  0.0039    1.0997   
     8. B(C   8,O   5)                1.4246  0.030130 -0.0316    1.3930   
     9. B(F   9,C   8)                1.3611  0.006728 -0.0060    1.3551   
    10. B(F  10,C   8)                1.3589  0.014852 -0.0132    1.3457   
    11. B(C  11,C   8)                1.5320  0.003846 -0.0053    1.5267   
    12. B(H  12,C  11)                1.0932 -0.007213  0.0104    1.1036   
    13. B(F  13,C  11)                1.3593  0.011117 -0.0099    1.3494   
    14. B(F  14,C  11)                1.3621  0.005798 -0.0052    1.3568   
    15. A(F   2,C   0,F   3)          108.19  0.000559    0.03    108.22   
    16. A(F   1,C   0,F   3)          107.42 -0.003094    0.39    107.82   
    17. A(F   3,C   0,C   4)          111.37 -0.002466    0.40    111.78   
    18. A(F   2,C   0,C   4)          111.95  0.000010    0.02    111.98   
    19. A(F   1,C   0,F   2)          107.43 -0.004060    0.47    107.90   
    20. A(F   1,C   0,C   4)          110.28  0.008729   -1.29    108.99   
    21. A(C   0,C   4,O   5)          112.08  0.019255   -3.13    108.95   
    22. A(H   6,C   4,H   7)          108.84  0.000394    0.47    109.32   
    23. A(O   5,C   4,H   7)          109.95 -0.008789    1.38    111.33   
    24. A(C   0,C   4,H   7)          108.80 -0.000341   -0.50    108.30   
    25. A(O   5,C   4,H   6)          108.50 -0.010368    2.04    110.54   
    26. A(C   0,C   4,H   6)          108.61 -0.000465   -0.19    108.41   
    27. A(C   4,O   5,C   8)          112.84 -0.026404    3.74    116.58   
    28. A(O   5,C   8,F  10)          106.82 -0.006155    0.83    107.65   
    29. A(O   5,C   8,F   9)          109.41 -0.014816    2.73    112.14   
    30. A(F  10,C   8,C  11)          110.28  0.006547   -1.57    108.71   
    31. A(F   9,C   8,C  11)          110.31  0.011069   -1.80    108.50   
    32. A(O   5,C   8,C  11)          113.95  0.008534   -1.52    112.43   
    33. A(F   9,C   8,F  10)          105.68 -0.006974    1.68    107.37   
    34. A(F  13,C  11,F  14)          106.29 -0.015275    2.08    108.37   
    35. A(H  12,C  11,F  14)          108.41 -0.005248    0.88    109.29   
    36. A(C   8,C  11,F  14)          110.67  0.013292   -1.88    108.79   
    37. A(H  12,C  11,F  13)          108.51 -0.006252    0.93    109.44   
    38. A(C   8,C  11,F  13)          111.50  0.011107   -1.62    109.88   
    39. A(C   8,C  11,H  12)          111.28  0.000972   -0.19    111.09   
    40. D(O   5,C   4,C   0,F   3)    -68.80 -0.000667    1.23    -67.57   
    41. D(O   5,C   4,C   0,F   1)    172.03 -0.000928    1.32    173.35   
    42. D(H   6,C   4,C   0,F   2)    -67.38 -0.000432    1.10    -66.28   
    43. D(H   6,C   4,C   0,F   3)    171.34  0.000590    0.76    172.10   
    44. D(O   5,C   4,C   0,F   2)     52.48 -0.001690    1.57     54.05   
    45. D(H   6,C   4,C   0,F   1)     52.17  0.000330    0.85     53.02   
    46. D(C   8,O   5,C   4,C   0)    171.39  0.000939   -0.92    170.47   
    47. D(C   8,O   5,C   4,H   7)     50.24 -0.005421    0.85     51.09   
    48. D(C   8,O   5,C   4,H   6)    -68.69  0.005439   -1.75    -70.44   
    49. D(C  11,C   8,O   5,C   4)   -102.37 -0.002222    3.79    -98.58   
    50. D(F  10,C   8,O   5,C   4)    135.58 -0.011531    6.16    141.74   
    51. D(F   9,C   8,O   5,C   4)     21.63  0.007029    2.44     24.07   
    52. D(H  12,C  11,C   8,F  10)    -58.93  0.000037   -0.37    -59.30   
    53. D(H  12,C  11,C   8,F   9)     57.44  0.002017   -0.33     57.11   
    54. D(H  12,C  11,C   8,O   5)   -179.04 -0.002629    0.75   -178.29   
    55. D(F  13,C  11,C   8,F  10)     62.38  0.000437   -0.45     61.94   
    56. D(F  13,C  11,C   8,F   9)    178.74  0.002417   -0.40    178.34   
    57. D(F  13,C  11,C   8,O   5)    -57.74 -0.002229    0.68    -57.06   
    ----------------------------------------------------------------------------

Geometry step timings:
Preparation and reading OPT file:      0.000 s ( 1.733 %)
Internal coordinates            :      0.000 s ( 1.176 %)
B/P matrices and projection     :      0.001 s (38.181 %)
Hessian update/contruction      :      0.000 s (12.252 %)
Making the step                 :      0.000 s (24.814 %)
Converting the step to Cartesian:      0.000 s ( 3.960 %)
Storing new data                :      0.000 s ( 1.980 %)
Checking convergence            :      0.000 s ( 1.238 %)
Final printing                  :      0.000 s (14.666 %)
Total time                      :      0.002 s

Time for energy+gradient        :     53.522 s
Time for complete geometry iter :     53.546 s

         *************************************************************
         *                GEOMETRY OPTIMIZATION CYCLE   2            *
         *************************************************************
---------------------------------
CARTESIAN COORDINATES (ANGSTROEM)
---------------------------------
  C     -2.814956    1.186178    0.257420
  F     -3.828778    1.469391   -0.577905
  F     -3.130017    1.670625    1.466687
  F     -2.721377   -0.149294    0.351671
  C     -1.542665    1.801456   -0.285449
  O     -0.500004    1.634397    0.675542
  H     -1.725972    2.869528   -0.473756
  H     -1.295472    1.302907   -1.233981
  C      0.789204    1.958535    0.259150
  F      0.786579    2.841255   -0.768954
  F      1.414160    2.550423    1.293561
  C      1.592338    0.729422   -0.159374
  H      2.618266    1.007689   -0.455873
  F      1.643498   -0.153887    0.859452
  F      0.968355    0.136376   -1.208172

----------------------------
CARTESIAN COORDINATES (A.U.)
----------------------------
  NO LB      ZA    FRAG     MASS         X           Y           Z
   0 C     6.0000    0    12.011   -5.319496    2.241551    0.486454
   1 F     9.0000    0    18.998   -7.235342    2.776747   -1.092083
   2 F     9.0000    0    18.998   -5.914875    3.157023    2.771637
   3 F     9.0000    0    18.998   -5.142657   -0.282125    0.664561
   4 C     6.0000    0    12.011   -2.915214    3.404259   -0.539420
   5 O     8.0000    0    15.999   -0.944871    3.088563    1.276590
   6 H     1.0000    0     1.008   -3.261614    5.422623   -0.895269
   7 H     1.0000    0     1.008   -2.448087    2.462137   -2.331886
   8 C     6.0000    0    12.011    1.491380    3.701094    0.489723
   9 F     9.0000    0    18.998    1.486419    5.369194   -1.453112
  10 F     9.0000    0    18.998    2.672375    4.819600    2.444476
  11 C     6.0000    0    12.011    3.009084    1.378409   -0.301173
  12 H     1.0000    0     1.008    4.947805    1.904256   -0.861475
  13 F     9.0000    0    18.998    3.105761   -0.290805    1.624129
  14 F     9.0000    0    18.998    1.829925    0.257712   -2.283114

--------------------------------
INTERNAL COORDINATES (ANGSTROEM)
--------------------------------
 C      0   0   0     0.000000000000     0.00000000     0.00000000
 F      1   0   0     1.343805529622     0.00000000     0.00000000
 F      1   2   0     1.340253016081   107.89841263     0.00000000
 F      1   2   3     1.342060130878   107.81717037   116.67754908
 C      1   2   3     1.513935354363   108.99410563   238.19494630
 O      5   1   2     1.427779427917   108.95377183   173.35362563
 H      5   1   2     1.099926532718   108.41971291    53.02010169
 H      5   1   2     1.099713291996   108.29707135   294.56450940
 C      6   5   1     1.393020544342   116.57900353   170.48057939
 F      9   6   5     1.355064742689   112.12158778    24.01151486
 F      9   6   5     1.345699278442   107.60040473   141.78395021
 C      9   6   5     1.526729768995   112.42412376   261.43169074
 H     12   9   6     1.103572001856   111.08126625   181.70237102
 F     12   9   6     1.349392193613   109.87445107   302.93138526
 F     12   9   6     1.356848479350   108.77486023    61.39401383

---------------------------
INTERNAL COORDINATES (A.U.)
---------------------------
 C      0   0   0     0.000000000000     0.00000000     0.00000000
 F      1   0   0     2.539424428235     0.00000000     0.00000000
 F      1   2   0     2.532711150555   107.89841263     0.00000000
 F      1   2   3     2.536126102613   107.81717037   116.67754908
 C      1   2   3     2.860923204208   108.99410563   238.19494630
 O      5   1   2     2.698112098409   108.95377183   173.35362563
 H      5   1   2     2.078559914270   108.41971291    53.02010169
 H      5   1   2     2.078156947705   108.29707135   294.56450940
 C      6   5   1     2.632427327732   116.57900353   170.48057939
 F      9   6   5     2.560701257414   112.12158778    24.01151486
 F      9   6   5     2.543003094870   107.60040473   141.78395021
 C      9   6   5     2.885101143906   112.42412376   261.43169074
 H     12   9   6     2.085448852572   111.08126625   181.70237102
 F     12   9   6     2.549981693179   109.87445107   302.93138526
 F     12   9   6     2.564072031200   108.77486023    61.39401383

------------------------------------------------------------------------------
                   ___                                                        
                  /   \      - P O W E R E D   B Y -                         
                 /     \                                                     
                 |  |  |   _    _      __       _____    __    __             
                 |  |  |  | |  | |    /  \     |  _  \  |  |  /  |          
                  \  \/   | |  | |   /    \    | | | |  |  | /  /          
                 / \  \   | |__| |  /  /\  \   | |_| |  |  |/  /          
                |  |  |   |  __  | /  /__\  \  |    /   |      \           
                |  |  |   | |  | | |   __   |  |    \   |  |\   \          
                \     /   | |  | | |  |  |  |  | |\  \  |  | \   \       
                 \___/    |_|  |_| |__|  |__|  |_| \__\ |__|  \__/        
                                                                              
                      - O R C A' S   B I G   F R I E N D -                    
[...]
     25       0.019071   0.051205  -0.005695  -0.107853   0.039039  -0.030687
     26      -0.017901  -0.045044   0.032511  -0.134681   0.052973  -0.006697
     27      -0.006411  -0.016792   0.001462  -0.005525  -0.001146   0.001034
     28      -0.002984   0.006700  -0.003938   0.018482  -0.008699   0.007323
     29       0.001822  -0.001105  -0.002560   0.002332   0.000569  -0.002048
     30      -0.003775  -0.014017  -0.002743   0.007313  -0.006371   0.002915
     31      -0.001030  -0.001501   0.001698   0.010346  -0.003396   0.002280
     32       0.000133  -0.002396  -0.002500   0.030324  -0.013233   0.004100
     33      -0.008939  -0.019138  -0.041931  -0.104945   0.016203  -0.004799
     34       0.007951  -0.002212   0.070024   0.190408  -0.051922   0.020978
     35       0.008788   0.012570  -0.110443   0.139191  -0.061519   0.009368
     36      -0.043441  -0.163393   0.326140   0.242302  -0.063997   0.041890
     37       0.090598   0.359627  -0.493651  -0.671989   0.182130  -0.092337
     38       0.060428   0.301199   0.788991  -0.445635   0.239215  -0.056398
     39      -0.000888  -0.004551   0.021382   0.020425  -0.003719   0.001726
     40      -0.006704  -0.012339   0.000873  -0.031105   0.008260  -0.002468
     41       0.001475   0.004272   0.007183  -0.004205   0.003097  -0.000129
     42      -0.003035  -0.012182  -0.016520   0.009589  -0.001321   0.001141
     43      -0.001749  -0.004159  -0.013535  -0.011595   0.002338  -0.000968
     44      -0.005002  -0.014362   0.008917  -0.023921   0.010972  -0.000882
                 42         43         44    
      0      -0.001887   0.000073  -0.000031
      1      -0.000637  -0.000075   0.002310
      2      -0.000046  -0.000070  -0.000291
      3       0.000400  -0.000013   0.000016
      4       0.000100   0.000010  -0.000258
      5       0.000295   0.000008   0.000053
      6      -0.000146  -0.000030   0.000153
      7       0.000310   0.000052  -0.000494
      8       0.000253   0.000036  -0.000118
      9      -0.000086  -0.000028  -0.000344
     10       0.000009  -0.000004  -0.000435
     11       0.000201   0.000029   0.000433
     12       0.010805   0.000449   0.009799
     13      -0.028546  -0.000887   0.091780
     14      -0.061925  -0.002619  -0.026534
     15      -0.001885   0.000611   0.000009
     16       0.000320   0.000187  -0.000581
     17      -0.000436  -0.000240   0.000380
     18      -0.083046  -0.003666  -0.134086
     19      -0.410152  -0.018991  -0.602341
     20       0.367308   0.016590   0.557031
     21      -0.015333  -0.000117   0.016733
     22       0.740472   0.028640  -0.486970
     23       0.367485   0.014081  -0.249523
     24       0.001554  -0.000039   0.000006
     25       0.001030  -0.001904   0.000314
     26      -0.000459  -0.001193  -0.000441
     27       0.000081   0.000009   0.000237
     28      -0.000270   0.000512  -0.000136
     29       0.000261  -0.000033   0.000257
     30      -0.000161   0.000207  -0.000080
     31      -0.000056   0.000221  -0.000009
     32      -0.000061   0.000446  -0.000012
     33       0.002704  -0.077520   0.000236
     34       0.001147  -0.036279   0.000245
     35      -0.000946   0.009045  -0.000128
     36      -0.035956   0.891066  -0.002947
     37      -0.016653   0.434167  -0.001425
     38       0.005019  -0.091709   0.000319
     39      -0.000015   0.000721  -0.000012
     40       0.000025  -0.000242  -0.000044
     41       0.000045   0.000402   0.000006
     42       0.000312   0.000246   0.000077
     43       0.000042   0.000493  -0.000101
     44       0.000188  -0.000712   0.000045


-----------
IR SPECTRUM
-----------

 Mode   freq       eps      Int      T**2         TX        TY        TZ
       cm**-1   L/(mol*cm) km/mol    a.u.
----------------------------------------------------------------------------
  6:     22.86   0.000032    0.16  0.000439  ( 0.018563 -0.003105  0.009234)
  7:     37.03   0.000176    0.89  0.001483  ( 0.008350 -0.034571  0.014775)
  8:     77.35   0.000459    2.32  0.001851  ( 0.007892 -0.035015  0.023721)
  9:     85.67   0.000129    0.65  0.000471  (-0.008851  0.019826 -0.000137)
 10:    151.34   0.000394    1.99  0.000811  (-0.012284  0.006843  0.024775)
 11:    199.74   0.000973    4.92  0.001521  ( 0.023863  0.027549  0.013874)
 12:    219.13   0.000431    2.18  0.000614  ( 0.006351 -0.019509  0.013879)
 13:    297.45   0.000636    3.22  0.000667  (-0.022120 -0.013070  0.002704)
 14:    329.79   0.000144    0.73  0.000136  (-0.008599 -0.002541  0.007455)
 15:    363.45   0.000103    0.52  0.000088  ( 0.001905  0.009159  0.000917)
 16:    369.42   0.000205    1.04  0.000173  ( 0.005145 -0.010906 -0.005297)
 17:    445.51   0.000248    1.26  0.000174  (-0.003901 -0.010937 -0.006258)
 18:    518.70   0.002778   14.04  0.001671  (-0.037663 -0.012900 -0.009301)
 19:    537.68   0.000408    2.06  0.000237  (-0.001479 -0.013496  0.007243)
 20:    551.42   0.001694    8.56  0.000959  (-0.027840 -0.009296  0.009870)
 21:    583.25   0.006094   30.80  0.003260  ( 0.046613 -0.022027 -0.024546)
 22:    617.53   0.000285    1.44  0.000144  ( 0.011007  0.002557  0.004026)
 23:    668.03   0.003126   15.80  0.001460  ( 0.032596 -0.010877 -0.016720)
 24:    716.74   0.007187   36.32  0.003129  (-0.053240  0.004340  0.016606)
 25:    859.70   0.000016    0.08  0.000006  ( 0.000323 -0.001626  0.001747)
 26:    881.03   0.011568   58.46  0.004097  ( 0.046495 -0.023190 -0.037388)
 27:    978.34   0.005463   27.61  0.001742  (-0.006426 -0.040326  0.008656)
 28:   1121.28   0.010766   54.41  0.002996  ( 0.040642  0.013224  0.034199)
 29:   1131.38   0.019331   97.69  0.005332  ( 0.008069  0.059432  0.041650)
 30:   1163.09   0.042140  212.96  0.011306  ( 0.025303  0.088459 -0.053303)
 31:   1170.23   0.021596  109.14  0.005759  (-0.038756  0.062469 -0.018830)
 32:   1208.19   0.054922  277.55  0.014186  ( 0.084000  0.065233  0.053614)
 33:   1217.36   0.048654  245.88  0.012472  ( 0.054927 -0.054838  0.080300)
 34:   1252.05   0.038215  193.12  0.009525  (-0.038246  0.001339 -0.089779)
 35:   1289.48   0.065964  333.36  0.015964  ( 0.115823 -0.018254 -0.047071)
 36:   1327.08   0.022961  116.03  0.005399  ( 0.003081 -0.058553  0.044286)
 37:   1350.46   0.047270  238.88  0.010923  ( 0.071727  0.059888  0.046815)
 38:   1383.95   0.003013   15.23  0.000679  (-0.013547  0.016663 -0.014773)
 39:   1431.81   0.003219   16.27  0.000702  ( 0.022294  0.008711 -0.011341)
 40:   1452.18   0.007075   35.76  0.001520  ( 0.035908 -0.007319 -0.013324)
 41:   1471.76   0.000669    3.38  0.000142  (-0.004321 -0.003214 -0.010623)
 42:   3074.32   0.002322   11.73  0.000236  (-0.010778 -0.006443 -0.008830)
 43:   3089.99   0.005325   26.91  0.000538  (-0.019078 -0.013093 -0.001534)
 44:   3147.93   0.000425    2.15  0.000042  (-0.001631  0.006279  0.000134)

* The epsilon (eps) is given for a Dirac delta lineshape.
** The dipole moment derivative (T) already includes vibrational overlap.

The first frequency considered to be a vibration is 6
The total number of vibrations considered is 39


--------------------------
THERMOCHEMISTRY AT 298.15K
--------------------------

Temperature         ...   298.15 K
Pressure            ...     1.00 atm
Total Mass          ...   200.05 AMU
Quasi RRHO          ...     True
Cut-Off Frequency   ...     1.00 cm^-1

Throughout the following assumptions are being made:
  (1) The electronic state is orbitally nondegenerate
  (2) There are no thermally accessible electronically excited states
  (3) Hindered rotations indicated by low frequency modes are not
      treated as such but are treated as vibrations and this may
      cause some error
  (4) All equations used are the standard statistical mechanics
      equations for an ideal gas
  (5) All vibrations are strictly harmonic

freq.      22.86  E(vib)   ...       0.56 
freq.      37.03  E(vib)   ...       0.54 
freq.      77.35  E(vib)   ...       0.49 
freq.      85.67  E(vib)   ...       0.48 
freq.     151.34  E(vib)   ...       0.40 
freq.     199.74  E(vib)   ...       0.35 
freq.     219.13  E(vib)   ...       0.33 
freq.     297.45  E(vib)   ...       0.27 
freq.     329.79  E(vib)   ...       0.24 
freq.     363.45  E(vib)   ...       0.22 
freq.     369.42  E(vib)   ...       0.21 
freq.     445.51  E(vib)   ...       0.17 
freq.     518.70  E(vib)   ...       0.13 
freq.     537.68  E(vib)   ...       0.12 
freq.     551.42  E(vib)   ...       0.12 
freq.     583.25  E(vib)   ...       0.11 
freq.     617.53  E(vib)   ...       0.09 
freq.     668.03  E(vib)   ...       0.08 
freq.     716.74  E(vib)   ...       0.07 
freq.     859.70  E(vib)   ...       0.04 
freq.     881.03  E(vib)   ...       0.04 
freq.     978.34  E(vib)   ...       0.03 
freq.    1121.28  E(vib)   ...       0.01 
freq.    1131.38  E(vib)   ...       0.01 
freq.    1163.09  E(vib)   ...       0.01 
freq.    1170.23  E(vib)   ...       0.01 
freq.    1208.19  E(vib)   ...       0.01 
freq.    1217.36  E(vib)   ...       0.01 
freq.    1252.05  E(vib)   ...       0.01 
freq.    1289.48  E(vib)   ...       0.01 
freq.    1327.08  E(vib)   ...       0.01 
freq.    1350.46  E(vib)   ...       0.01 
freq.    1383.95  E(vib)   ...       0.00 
freq.    1431.81  E(vib)   ...       0.00 
freq.    1452.18  E(vib)   ...       0.00 
freq.    1471.76  E(vib)   ...       0.00 
freq.    3074.32  E(vib)   ...       0.00 
freq.    3089.99  E(vib)   ...       0.00 
freq.    3147.93  E(vib)   ...       0.00 

------------
INNER ENERGY
------------

The inner energy is: U= E(el) + E(ZPE) + E(vib) + E(rot) + E(trans)
    E(el)   - is the total energy from the electronic structure calculation
              = E(kin-el) + E(nuc-el) + E(el-el) + E(nuc-nuc)
    E(ZPE)  - the the zero temperature vibrational energy from the frequency calculation
    E(vib)  - the the finite temperature correction to E(ZPE) due to population
              of excited vibrational states
    E(rot)  - is the rotational thermal energy
    E(trans)- is the translational thermal energy

Summary of contributions to the inner energy U:
Electronic energy                ...   -927.27403680 Eh
Zero point energy                ...      0.08382215 Eh      52.60 kcal/mol
Thermal vibrational correction   ...      0.00828858 Eh       5.20 kcal/mol
Thermal rotational correction    ...      0.00141627 Eh       0.89 kcal/mol
Thermal translational correction ...      0.00141627 Eh       0.89 kcal/mol
-----------------------------------------------------------------------
Total thermal energy                   -927.17909353 Eh


Summary of corrections to the electronic energy:
(perhaps to be used in another calculation)
Total thermal correction                  0.01112112 Eh       6.98 kcal/mol
Non-thermal (ZPE) correction              0.08382215 Eh      52.60 kcal/mol
-----------------------------------------------------------------------
Total correction                          0.09494327 Eh      59.58 kcal/mol


--------
ENTHALPY
--------

The enthalpy is H = U + kB*T
                kB is Boltzmann's constant
Total thermal energy              ...   -927.17909353 Eh 
Thermal Enthalpy correction       ...      0.00094421 Eh       0.59 kcal/mol
-----------------------------------------------------------------------
Total Enthalpy                    ...   -927.17814932 Eh


Note: Only C1 symmetry has been detected, increase convergence thresholds 
      if your molecule has a higher symmetry. Symmetry factor of 1.0 is   
      used for the rotational entropy correction. 
 

Note: Rotational entropy computed according to Herzberg 
Infrared and Raman Spectra, Chapter V,1, Van Nostrand Reinhold, 1945 
Point Group:  C1, Symmetry Number:   1  
Rotational constants in cm-1:     0.051836     0.017287     0.016312 

Vibrational entropy computed according to the QRRHO of S. Grimme
Chem.Eur.J. 2012 18 9955 using a reference frequency of 100.0 cm-1


-------
ENTROPY
-------

The entropy contributions are T*S = T*(S(el)+S(vib)+S(rot)+S(trans))
     S(el)   - electronic entropy
     S(vib)  - vibrational entropy
     S(rot)  - rotational entropy
     S(trans)- translational entropy
The entropies will be listed as multiplied by the temperature to get
units of energy

Electronic entropy                ...      0.00000000 Eh      0.00 kcal/mol
Vibrational entropy               ...      0.01490545 Eh      9.35 kcal/mol
Rotational entropy                ...      0.01476674 Eh      9.27 kcal/mol
Translational entropy             ...      0.01985330 Eh     12.46 kcal/mol
-----------------------------------------------------------------------
Final entropy term                ...      0.04952550 Eh     31.08 kcal/mol

In case the symmetry of your molecule has not been determined correctly
or in case you have a reason to use a different symmetry number we print 
out the resulting rotational entropy values for sn=1,12:

 non-linear molecules -----------------------------------
|  sn= 1 | S(rot)=       0.01476674 Eh      9.27 kcal/mol|
|  sn= 2 | S(rot)=       0.01411229 Eh      8.86 kcal/mol|
|  sn= 3 | S(rot)=       0.01372945 Eh      8.62 kcal/mol|
|  sn= 4 | S(rot)=       0.01345783 Eh      8.44 kcal/mol|
|  sn= 5 | S(rot)=       0.01324714 Eh      8.31 kcal/mol|
|  sn= 6 | S(rot)=       0.01307500 Eh      8.20 kcal/mol|
|  sn= 7 | S(rot)=       0.01292945 Eh      8.11 kcal/mol|
|  sn= 8 | S(rot)=       0.01280337 Eh      8.03 kcal/mol|
|  sn= 9 | S(rot)=       0.01269216 Eh      7.96 kcal/mol|
|  sn=10 | S(rot)=       0.01259269 Eh      7.90 kcal/mol|
|  sn=11 | S(rot)=       0.01250270 Eh      7.85 kcal/mol|
|  sn=12 | S(rot)=       0.01242054 Eh      7.79 kcal/mol|
 linear molecules ---------------------------------------
|  Dinfh | S(rot)=       0.00921189 Eh      5.78 kcal/mol|
|  Cinfv | S(rot)=       0.00986635 Eh      6.19 kcal/mol|
 --------------------------------------------------------


-------------------
GIBBS FREE ENERGY
-------------------

The Gibbs free energy is G = H - T*S

Total enthalpy                    ...   -927.17814932 Eh 
Total entropy correction          ...     -0.04952550 Eh    -31.08 kcal/mol
-----------------------------------------------------------------------
Final Gibbs free energy         ...   -927.22767482 Eh

For completeness - the Gibbs free energy minus the electronic energy
G-E(el)                           ...      0.04636198 Eh     29.09 kcal/mol


Maximum memory used throughout the entire PROP-calculation: 55.1 MB

--------------------------------
SUGGESTED CITATIONS FOR THIS RUN
--------------------------------

Below you find a list of papers that are relevant to this ORCA run
We neither can nor want to force you to cite these papers, but we appreciate if you do
You receive ORCA, which is the product of decades of hard work by many enthusiastic individuals, for free
The only thing we kindly ask in return is that you cite our papers,
We deeply appreciate it, if you show your appreciation for ORCA by not just citing the generic ORCA reference.

Please note that relegating all ORCA citations to the supporting information does *not* help us.
SI sections are not indexed - citations you put there will not count into any citation statistics
But we need these citations in order to attract the funding resources that allow us to do what we are doing

Therefore, if you are a happy ORCA user, please consider citing a few of the papers listed below in the main body of your paper

In addition to the list printed below, the program has created the file TFTFE_C3.bibtex that contains the list in bibtex format
You can import this file easily into all common literature databanks and citation aid programs


List of essential papers. We consider these as the minimum necessary citations

  1. Neese, F.
     Software update: the ORCA program system, version 6.0
     WIRES Comput. Molec. Sci. 2025 15(1), e70019
     doi.org/10.1002/wcms.7019

List of papers to cite with high priority. The work reported in these papers was absolutely
necessary for this run to complete.
Our perspective: the developers of density functionals and basis sets usually get cited in chemistry papers
Good! But without the algorithms to do something with them, the functionals or basis sets would not do anything.
Hence, in our opinion, the algorithm design and method developments papers are equally worthy of getting cited

  1. Neese, F.
     An improvement of the resolution of the identity approximation for the formation of the Coulomb matrix
     J. Comp. Chem. 2003 24(14), 1740-1747
     doi.org/10.1002/jcc.10318
  2. Neese, F.; Wennmohs, F.; Hansen, A.; Becker, U.
     Efficient, approximate and parallel Hartree-Fock and hybrid DFT calculations. A 'chain-of-spheres' algorithm for the Hartree-Fock exchange
     Chem. Phys. 2009 356(1-3), 98-109
     doi.org/10.1016/j.chemphys.2008.10.036
  3. Bykov, D.; Petrenko, T.; Izsak, R.; Kossmann, S.; Becker, U.; Valeev, E.; Neese, F.
     Efficient implementation of the analytic second derivatives of Hartree-Fock and hybrid DFT energies: a detailed analysis of different approximations
     Molec. Phys. 2015 113 , 1961-1977
     doi.org/10.1080/00268976.2015.1025114
  4. Helmich-Paris, B.; de Souza, B.; Neese, F.; Izsák, R.
     An improved chain of spheres for exchange algorithm
     J. Chem. Phys. 2021 155(10), 104109
     doi.org/10.1063/5.0058766
  5. Neese, F.
     The SHARK Integral Generation and Digestion System
     J. Comp. Chem. 2022 44(3), 381
     doi.org/10.1002/jcc.26942

List of suggested additional citations. These are papers that are important in the 'surrounding' of 
of this run, or papers that preceded the highly important papers. If you like your results we are grateful for a citation.

  1. Izsak, R.; Neese, F.
     An overlap fitted chain of spheres exchange method
     J. Chem. Phys. 2011 135 , 144105
     doi.org/10.1063/1.3646921
  2. Izsak, R.; Hansen, A.; Neese, F.
     The resolution of identity and chain of spheres approximations for the LPNO-CCSD singles Fock term
     Molec. Phys. 2012 110 , 2413-2417
     doi.org/10.1080/00268976.2012.687466
  3. Neese, F.
     The ORCA program system
     WIRES Comput. Molec. Sci. 2012 2(1), 73-78
     doi.org/10.1002/wcms.81
  4. Izsak, R.; Neese, F.; Klopper, W.
     Robust fitting techniques in the chain of spheres approximation to the Fock exchange: The role of the complementary space
     J. Chem. Phys. 2013 139 , 
     doi.org/10.1063/1.4819264
  5. Neese, F.
     Software update: the ORCA program system, version 4.0
     WIRES Comput. Molec. Sci. 2018 8(1), 1-6
     doi.org/10.1002/wcms.1327
  6. Neese, F.; Wennmohs, F.; Becker, U.; Riplinger, C.
     The ORCA quantum chemistry program package
     J. Chem. Phys. 2020 152(22), 224108
     doi.org/10.1063/5.0004608
  7. Neese, F.
     Software update: The ORCA program system—Version 5.0
     WIRES Comput. Molec. Sci. 2022 12(1), e1606
     doi.org/10.1002/wcms.1606

List of optional additional citations

  1. Neese, F.
     Approximate second-order SCF convergence for spin unrestricted wavefunctions
     Chem. Phys. Lett. 2000 325(1-3), 93-98
     doi.org/10.1016/s0009-2614(00)00662-x

Timings for individual modules:

Sum of individual times          ...     3977.315 sec (=  66.289 min)
Startup calculation              ...       36.133 sec (=   0.602 min)   0.9 %
SCF iterations                   ...      794.917 sec (=  13.249 min)  20.0 %
Property integrals               ...       88.723 sec (=   1.479 min)   2.2 %
SCF Response                     ...       60.616 sec (=   1.010 min)   1.5 %
Property calculations            ...      279.081 sec (=   4.651 min)   7.0 %
SCF Gradient evaluation          ...     2717.776 sec (=  45.296 min)  68.3 %
Geometry relaxation              ...        0.071 sec (=   0.001 min)   0.0 %
                             ****ORCA TERMINATED NORMALLY****
TOTAL RUN TIME: 0 days 1 hours 6 minutes 18 seconds 564 msec
