
                                 *****************
                                 * O   R   C   A *
                                 *****************

                                            #,                                       
                                            ###                                      
                                            ####                                     
                                            #####                                    
                                            ######                                   
                                           ########,                                 
                                     ,,################,,,,,                         
                               ,,#################################,,                 
                          ,,##########################################,,             
                       ,#########################################, ''#####,          
                    ,#############################################,,   '####,        
                  ,##################################################,,,,####,       
                ,###########''''           ''''###############################       
              ,#####''   ,,,,##########,,,,          '''####'''          '####       
            ,##' ,,,,###########################,,,                        '##       
           ' ,,###''''                  '''############,,,                           
         ,,##''                                '''############,,,,        ,,,,,,###''
      ,#''                                            '''#######################'''  
     '                                                          ''''####''''         
             ,#######,   #######,   ,#######,      ##                                
            ,#'     '#,  ##    ##  ,#'     '#,    #''#        ,####,    ,#,          
            ##       ##  ##   ,#'  ##            #'  '#       #'       ,# #          
            ##       ##  #######   ##           ,######,      #####,      #          
            '#,     ,#'  ##    ##  '#,     ,#' ,#      #,     #,   #      #          
             '#######'   ##     ##  '#######'  #'      '#     '####' #    #          



                #########################################################
                #                        -***-                          #
                #          Department of theory and spectroscopy        #
                #                                                       #
                #                      Frank Neese                      #
                #                                                       #
                #     Directorship, Architecture, Infrastructure        #
                #                    SHARK, DRIVERS                     #
                #        Core code/Algorithms in most modules           #
                #                                                       #
                #        Max Planck Institute fuer Kohlenforschung      #
                #                Kaiser Wilhelm Platz 1                 #
                #                 D-45470 Muelheim/Ruhr                 #
                #                      Germany                          #
                #                                                       #
                #                  All rights reserved                  #
                #                        -***-                          #
                #########################################################


                         Program Version 6.1.0  -  RELEASE   -
                                (GIT: $679e74b$)
                          ($2025-06-10 18:02:51 +0200$)


 With contributions from (in alphabetic order):
[Max-Planck-Institut fuer Kohlenforschung]                               
  Daniel Aravena         : Magnetic Suceptibility                        
  Michael Atanasov       : Ab Initio Ligand Field Theory (pilot matlab implementation)
  Alexander A. Auer      : GIAO ZORA, VPT2 properties, NMR spectrum      
  Ute Becker             : All parallelization in ORCA, NUMFREQ, NUMCALC 
  Giovanni Bistoni       : ED, misc. LED, open-shell LED, HFLD           
  Dmytro Bykov           : pre 5.0 version of the SCF Hessian            
  Marcos Casanova-Páez   : Triplet and SCS-CIS(D). UHF-(DLPNO)-IP/EA/STEOM-CCSD. UHF-CVS-IP/STEOM-CCSD   
  Vijay G. Chilkuri      : MRCI spin determinant printing, contributions to CSF-ICE 
  Pauline Colinet        : FMM embedding                                 
  Dipayan Datta          : RHF DLPNO-CCSD density                        
  Achintya Kumar Dutta   : EOM-CC, STEOM-CC                              
  Nicolas Foglia         : Exact transition moments, OPA infrastructure, MCD improvements    
  Dmitry Ganyushin       : Spin-Orbit,Spin-Spin,Magnetic field MRCI      
  Miquel Garcia-Rates    : C-PCM and meta-GGA Hessian, CCSD/C-PCM, Gaussian charge scheme 
  Tiago L. C. Gouveia    : GS-ROHF, GS-ROCIS                             
  Yang Guo               : DLPNO-NEVPT2, F12-NEVPT2, CIM, IAO-localization        
  Andreas Hansen         : Spin unrestricted coupled pair/coupled cluster methods 
  Ingolf Harden          : AUTO-CI MPn and infrastructure                
  Benjamin Helmich-Paris : MC-RPA, TRAH-(SCF,CASSCF), AVAS, COSX integrals, SCF dyn. polar., MC-PDFT, srDFT 
  Lee Huntington         : MR-EOM, pCC                                   
  Robert Izsak           : Overlap fitted RIJCOSX, COSX-SCS-MP3, EOM     
  Riya Kayal             : Wick's Theorem for AUTO-CI, AUTO-CI UHF-CCSDT 
  Emily Kempfer          : AUTO-CI RHF CISDT and CCSDT, approximate NEVPT4
  Christian Kollmar      : KDIIS, OOCD, Brueckner-CCSD(T), CCSD density, CASPT2, CASPT2-K, improved NEVPT2 
  Axel Koslowski         : Symmetry handling                             
  Simone Kossmann        : meta-GGA functionals, TD-DFT gradient, OOMP2, (MP2 Hessian; deprecated post 5.0) 
  Lucas Lang             : DCDCAS, Hyperfine gauge corrections, ICE-SOC+SSC
  Marvin Lechner         : AUTO-CI (C++ implementation), FIC-MRCC        
  Spencer Leger          : CASSCF response                               
  Dagmar Lenk            : GEPOL surface, SMD, ORCA-2-JSON               
  Dimitrios Liakos       : Extrapolation schemes; Compound Job, Property file
  Dimitrios Manganas     : Further ROCIS development; embedding schemes. LFT, Crystal Embedding 
  Dimitrios Pantazis     : SARC Basis sets                               
  Anastasios Papadopoulos: AUTO-CI, single reference methods and gradients 
  Taras Petrenko         : pre 6.0 DFT Hessian and TD-DFT gradient,  ECA, NRVS 
  Petra Pikulova         : Analytic Raman intensities                    
  Peter Pinski           : DLPNO-MP2, DLPNO-MP2 Gradient                 
  Shashank Vittal Rao    : ES-AILFT, MagRelax                            
  Christoph Reimann      : Effective Core Potentials                     
  Marius Retegan         : Local ZFS, SOC                                
  Christoph Riplinger    : Optimizer, TS searches, QM/MM, DLPNO-CCSD(T), (RO)-DLPNO pert. Triples 
  Michael Roemelt        : Original ROCIS implementation, recursive CI coupling coefficients
  Masaaki Saitow         : Open-shell DLPNO-CCSD energy and density      
  Barbara Sandhoefer     : DKH picture change effects                    
  Yorick L. A. Schmerwitz: GMF and freeze-and-release deltaSCF, NEB S-IDPP initial path                    
  Kantharuban Sivalingam : CASSCF convergence/infrastructure, NEVPT2, NEVPT3, NEVPT4(SD), FIC-MRCI and CEPA variants
  Bernardo de Souza      : ESD, SOC TD-DFT                               
  Georgi L. Stoychev     : AutoAux, RI-MP2 NMR, DLPNO-MP2 response, X2C  
  Van Anh Tran           : RI-MP2 g-tensors                              
  Willem Van den Heuvel  : Paramagnetic NMR                              
  Zikuan Wang            : NOTCH, Electric field optimization            
  Frank Wennmohs         : Technical directorship and infrastructure     
  Hang Xu                : AUTO-CI-Response properties                   
                                                                         
[FACCTs GmbH]                                                            
  Markus Bursch, Nicolas Foglia, Miquel Garcia-Rates, Ingolf Harden, Hagen Neugebauer, Anastasios Papadopoulos, 
  Christoph Riplinger, Bernardo de Souza, Georgi L. Stoychev                                                    
                                                                 
  APM, various basis sets, CI-OPT, improved COSX, DLPNO-Multilevel,           
  DOCKER, DRACO, updates on ESD, Fragmentator, GOAT, IRC, LR-CPCM, L-BFGS, MBIS, meta-GGA TD-DFT gradient, ML-optimized integration grids, 
  MM, NACMEs, nearIR, NEB, NEB-TS, NL-DFT gradient (VV10), 2- and 3-layer-ONIOM, interface openCOSMO-RS, QMMM,   
  Crystal-QMMM, RESP, rigid body optimization, SF, symmetry and pop. for TD-DFT, various functionals, SOLVATOR                                   
                                                                         
[Other institutions]                                                     
  V. Asgeirsson          : NEB                                           
  Christoph Bannwarth    : sTDA-DFT, sTD-DFT, PBEh-3c, B97-3c, D3        
  Giovanni Bistoni       : ETS/NOCV, ADLD/ADEX, COVALED                  
  Martin Brehm           : Molecular dynamics                            
  Ronald Cardenas        : ETS/NOCV                                      
  Martina Colucci        : COVALED                                       
  Sebastian Ehlert       : rSCAN, r2SCAN, r2SCAN-3c, D4, dhf basis sets  
  Marvin Friede          : D4 for Fr, Ra, Ac-Lr                          
  Lars Goerigk           : TD-DFT with DH, B97 family of functionals     
  Stefan Grimme          : VdW corrections, initial TS optimization, DFT functionals, gCP, sTDA/sTD-DF 
  Waldemar Hujo          : DFT-NL                                        
  H. Jonsson             : NEB                                           
  Holger Kruse           : gCP                                           
  Marcel Mueller         : wB97X-3c, vDZP basis set                      
  Hagen Neugebauer       : wr2SCAN, Native XTB                           
  Gianluca Regni         : ADLD/ADEX                                     
  Tobias Risthaus        : pre 6.0 range-separated hybrid DFT and stability analysis
  Lukas Wittmann         : regularized MP2, r2SCAN double-hybrids, wr2SCAN        
                                                                         
We gratefully acknowledge several colleagues who have allowed us to      
interface, adapt or use parts of their codes:                            
  Ed Valeev, F. Pavosevic, A. Kumar             : LibInt (2-el integral package), F12 methods 
  Garnet Chan, S. Sharma, J. Yang, R. Olivares  : DMRG                   
  Ulf Ekstrom                                   : XCFun DFT Library      
  Mihaly Kallay                                 : mrcc  (arbitrary order and MRCC methods)
  Frank Weinhold                                : gennbo (NPA and NBO analysis)           
  Simon Mueller                                 : openCOSMO-RS                            
  Christopher J. Cramer and Donald G. Truhlar   : smd solvation model                     
  S Lehtola, MJT Oliveira, MAL Marques          : LibXC Library                           
  Liviu Ungur et al                             : ANISO software                          


 Your calculation uses the libint2 library for the computation of 2-el integrals
 For citations please refer to: http://libint.valeyev.net

 Your ORCA version has been built with support for libXC version: 7.0.0
 For citations please refer to: https://libxc.gitlab.io

 This ORCA versions uses:
   CBLAS   interface :  Fast vector & matrix operations
   LAPACKE interface :  Fast linear algebra routines
   SCALAPACK package :  Parallel linear algebra routines
   Shared memory     :  Shared parallel matrices
   BLAS/LAPACK       :  OpenBLAS 0.3.29  USE64BITINT DYNAMIC_ARCH NO_AFFINITY Haswell SINGLE_THREADED
        Core in use  :  Haswell
   Copyright (c) 2011-2014, The OpenBLAS Project


  ***********************************
  * Starting time: Tue Nov 18 13:03:50 2025
  * Host name:     BOOK-611GI2U5BQ
  * Process ID:    11578
  * Working dir.:  /home/a_limbo/IR_lab
  ***********************************

Warning: RI is on but no J-basis has been assigned. Assigning Def2/J (nothing to worry about!)
================================================================================

----- Orbital basis set information -----
Your calculation utilizes the basis: def2-SVP
   F. Weigend and R. Ahlrichs, Phys. Chem. Chem. Phys. 7, 3297 (2005).

----- AuxJ basis set information -----
Your calculation utilizes the auxiliary basis: def2/J
   H-Rn: F. Weigend, Phys. Chem. Chem. Phys. 8, 1057 (2006).
   Fr-Lr: K. Eichkorn, F. Weigend, O. Treutler, R. Ahlrichs; Theor. Chem. Acc. 97, 119 (1997).

================================================================================
                                        WARNINGS
                       Please study these warnings very carefully!
================================================================================

WARNING: Old DensityContainer found on disk!
         Will remove this file - 
         If you want to keep old densities, please start your calculation with a different basename. 


WARNING: Geometry Optimization
  ===> : Switching off AutoStart
         For restart on a previous wavefunction, please use MOREAD

================================================================================
                                       INPUT FILE
================================================================================
NAME = TFTFE_C2.inp
|  1> # avogadro generated ORCA input file 
|  2> # Basic Mode
|  3> # 
|  4> ! B3LYP def2-SVP OPT FREQ 
|  5> 
|  6> * xyz 0 1
|  7>    C       -2.07321        0.81607       -0.08813
|  8>    F       -1.81331        1.90900       -0.83615
|  9>    F       -3.29339        0.98833        0.47347
| 10>    F       -2.15137       -0.25298       -0.90746
| 11>    C       -1.02235        0.62017        1.00174
| 12>    H       -1.01049        1.51363        1.63522
| 13>    H       -1.30641       -0.23833        1.61967
| 14>    O        0.27561        0.36956        0.45524
| 15>    C        1.34093        0.63414        1.36454
| 16>    F        2.48819        0.51428        0.64873
| 17>    C        1.38913       -0.25395        2.61742
| 18>    F        1.24529        1.94353        1.71865
| 19>    F        1.46126       -1.57102        2.29072
| 20>    F        2.48341        0.01965        3.37579
| 21>    H        0.50479       -0.10965        3.24371
| 22> *
| 23> 
| 24> 
| 25>                          ****END OF INPUT****
================================================================================

                       *****************************
                       * Geometry Optimization Run *
                       *****************************

Geometry optimization settings:
Update method            Update   .... BFGS
Choice of coordinates    CoordSys .... (2022) Redundant Internals
Initial Hessian          InHess   .... Almloef's Model
Max. no of cycles        MaxIter  .... 50

Convergence Tolerances:
Energy Change            TolE     ....  5.0000e-06 Eh
Max. Gradient            TolMAXG  ....  3.0000e-04 Eh/bohr
RMS Gradient             TolRMSG  ....  1.0000e-04 Eh/bohr
Max. Displacement        TolMAXD  ....  4.0000e-03 bohr
RMS Displacement         TolRMSD  ....  2.0000e-03 bohr
Strict Convergence                .... False

------------------------------------------------------------------------------
                        ORCA OPTIMIZATION COORDINATE SETUP
------------------------------------------------------------------------------

The optimization will be done in redundant internal coordinates (2022)
Making redundant internal coordinates   ...  (2022 redundants) done
Evaluating the initial hessian          ...  (Almloef) done
Evaluating the coordinates              ...  done
Calculating the B-matrix                .... done
Calculating the G-matrix                .... done
The number of degrees of freedom        ....   57

    -----------------------------------------------------------------
                    Redundant Internal Coordinates


    -----------------------------------------------------------------
         Definition                    Initial Value    Approx d2E/dq
    -----------------------------------------------------------------
      1. B(F   1,C   0)                  1.3497         0.603016   
      2. B(F   2,C   0)                  1.3542         0.592999   
      3. B(F   3,C   0)                  1.3492         0.604084   
      4. B(C   4,C   0)                  1.5266         0.378273   
      5. B(H   5,C   4)                  1.0953         0.353141   
      6. B(H   6,C   4)                  1.0952         0.353235   
      7. B(O   7,C   4)                  1.4304         0.482337   
      8. B(C   8,O   7)                  1.4254         0.491375   
      9. B(F   9,C   8)                  1.3576         0.585775   
     10. B(C  10,C   8)                  1.5365         0.364802   
     11. B(F  11,C   8)                  1.3598         0.580974   
     12. B(F  12,C  10)                  1.3589         0.582888   
     13. B(F  13,C  10)                  1.3592         0.582241   
     14. B(H  14,C  10)                  1.0932         0.355872   
     15. A(F   2,C   0,F   3)          107.4838         0.419315   
     16. A(F   1,C   0,F   3)          108.4352         0.420570   
     17. A(F   3,C   0,C   4)          111.8235         0.391522   
     18. A(F   2,C   0,C   4)          109.9068         0.390256   
     19. A(F   1,C   0,F   2)          107.4781         0.419183   
     20. A(F   1,C   0,C   4)          111.5328         0.391401   
     21. A(C   0,C   4,H   5)          108.4017         0.323945   
     22. A(H   6,C   4,O   7)          108.2739         0.335203   
     23. A(H   5,C   4,O   7)          110.7350         0.335188   
     24. A(C   0,C   4,O   7)          111.9837         0.378111   
     25. A(H   5,C   4,H   6)          108.4149         0.289076   
     26. A(C   0,C   4,H   6)          108.9561         0.323960   
     27. A(C   4,O   7,C   8)          113.6987         0.393222   
     28. A(O   7,C   8,C  10)          115.8708         0.376956   
     29. A(O   7,C   8,F   9)          106.1920         0.405123   
     30. A(C  10,C   8,F  11)          110.2697         0.386412   
     31. A(F   9,C   8,F  11)          106.3658         0.415504   
     32. A(O   7,C   8,F  11)          106.9956         0.404535   
     33. A(F   9,C   8,C  10)          110.6350         0.386966   
     34. A(F  13,C  10,H  14)          107.7612         0.344915   
     35. A(F  12,C  10,H  14)          107.9750         0.344980   
     36. A(C   8,C  10,H  14)          111.4370         0.322432   
     37. A(F  12,C  10,F  13)          106.6488         0.415300   
     38. A(C   8,C  10,F  13)          111.3385         0.386558   
     39. A(C   8,C  10,F  12)          111.4592         0.386633   
     40. D(H   5,C   4,C   0,F   3)   -179.6401         0.011410   
     41. D(H   5,C   4,C   0,F   1)     58.7449         0.011410   
     42. D(H   6,C   4,C   0,F   2)     57.4416         0.011410   
     43. D(H   6,C   4,C   0,F   3)    -61.8471         0.011410   
     44. D(H   5,C   4,C   0,F   2)    -60.3515         0.011410   
     45. D(H   6,C   4,C   0,F   1)    176.5380         0.011410   
     46. D(C   8,O   7,C   4,C   0)    159.5598         0.018357   
     47. D(C   8,O   7,C   4,H   6)    -80.2928         0.018357   
     48. D(C   8,O   7,C   4,H   5)     38.4397         0.018357   
     49. D(F  11,C   8,O   7,C   4)    -59.1154         0.019069   
     50. D(C  10,C   8,O   7,C   4)     64.3086         0.019069   
     51. D(F   9,C   8,O   7,C   4)   -172.4162         0.019069   
     52. D(F  12,C  10,C   8,F  11)    178.9270         0.010658   
     53. D(F  12,C  10,C   8,F   9)    -63.6837         0.010658   
     54. D(F  12,C  10,C   8,O   7)     57.2322         0.010658   
     55. D(F  13,C  10,C   8,F  11)    -62.1218         0.010658   
     56. D(F  13,C  10,C   8,F   9)     55.2675         0.010658   
     57. D(F  13,C  10,C   8,O   7)    176.1834         0.010658   
    -----------------------------------------------------------------

Number of atoms                         .... 15
Number of degrees of freedom            .... 57


         *************************************************************
         *                GEOMETRY OPTIMIZATION CYCLE   1            *
         *************************************************************
---------------------------------
CARTESIAN COORDINATES (ANGSTROEM)
---------------------------------
  C     -2.073210    0.816070   -0.088130
  F     -1.813310    1.909000   -0.836150
  F     -3.293390    0.988330    0.473470
  F     -2.151370   -0.252980   -0.907460
  C     -1.022350    0.620170    1.001740
  H     -1.010490    1.513630    1.635220
  H     -1.306410   -0.238330    1.619670
  O      0.275610    0.369560    0.455240
  C      1.340930    0.634140    1.364540
  F      2.488190    0.514280    0.648730
  C      1.389130   -0.253950    2.617420
  F      1.245290    1.943530    1.718650
  F      1.461260   -1.571020    2.290720
  F      2.483410    0.019650    3.375790
  H      0.504790   -0.109650    3.243710

----------------------------
CARTESIAN COORDINATES (A.U.)
----------------------------
  NO LB      ZA    FRAG     MASS         X           Y           Z
   0 C     6.0000    0    12.011   -3.917799    1.542149   -0.166542
   1 F     9.0000    0    18.998   -3.426659    3.607487   -1.580095
   2 F     9.0000    0    18.998   -6.223605    1.867673    0.894729
   3 F     9.0000    0    18.998   -4.065500   -0.478063   -1.714851
   4 C     6.0000    0    12.011   -1.931962    1.171951    1.893014
   5 H     1.0000    0     1.008   -1.909549    2.860346    3.090118
   6 H     1.0000    0     1.008   -2.468757   -0.450378    3.060733
   7 O     8.0000    0    15.999    0.520827    0.698367    0.860279
   8 C     6.0000    0    12.011    2.533990    1.198351    2.578607
   9 F     9.0000    0    18.998    4.701998    0.971848    1.225922
  10 C     6.0000    0    12.011    2.625075   -0.479896    4.946207
  11 F     9.0000    0    18.998    2.353257    3.672739    3.247778
  12 F     9.0000    0    18.998    2.761381   -2.968798    4.328833
  13 F     9.0000    0    18.998    4.692965    0.037133    6.379319
  14 H     1.0000    0     1.008    0.953915   -0.207208    6.129724

--------------------------------
INTERNAL COORDINATES (ANGSTROEM)
--------------------------------
 C      0   0   0     0.000000000000     0.00000000     0.00000000
 F      1   0   0     1.349658443941     0.00000000     0.00000000
 F      1   2   0     1.354218335425   107.47814376     0.00000000
 F      1   2   3     1.349176985054   108.43519245   115.91122303
 C      1   2   3     1.526597578440   111.53279934   239.46944938
 H      5   1   2     1.095311983683   108.40174357    58.74494373
 H      5   1   2     1.095239616933   108.95613347   176.53797829
 O      5   1   2     1.430443212330   111.98365005   296.28653670
 C      8   5   1     1.425389690155   113.69867739   159.55977661
 F      9   8   5     1.357555112436   106.19198551   187.58381554
 C      9   8   5     1.536468477548   115.87081807    64.30862233
 F      9   8   5     1.359795232305   106.99559349   300.88458923
 F     11   9   8     1.358899927073   111.45921627    57.23218708
 F     11   9   8     1.359202242236   111.33846289   176.18338558
 H     11   9   8     1.093214932984   111.43699507   296.53005983

---------------------------
INTERNAL COORDINATES (A.U.)
---------------------------
 C      0   0   0     0.000000000000     0.00000000     0.00000000
 F      1   0   0     2.550484833382     0.00000000     0.00000000
 F      1   2   0     2.559101779487   107.47814376     0.00000000
 F      1   2   3     2.549575007942   108.43519245   115.91122303
 C      1   2   3     2.884851339960   111.53279934   239.46944938
 H      5   1   2     2.069839680363   108.40174357    58.74494373
 H      5   1   2     2.069702927025   108.95613347   176.53797829
 O      5   1   2     2.703145921430   111.98365005   296.28653670
 C      8   5   1     2.693596148508   113.69867739   159.55977661
 F      9   8   5     2.565407374208   106.19198551   187.58381554
 C      9   8   5     2.903504635969   115.87081807    64.30862233
 F      9   8   5     2.569640587269   106.99559349   300.88458923
 F     11   9   8     2.567948705574   111.45921627    57.23218708
 F     11   9   8     2.568519998438   111.33846289   176.18338558
 H     11   9   8     2.065876828854   111.43699507   296.53005983

---------------------
BASIS SET INFORMATION
---------------------
There are 4 groups of distinct atoms

 Group   1 Type C   : 7s4p1d contracted to 3s2p1d pattern {511/31/1}
 Group   2 Type F   : 7s4p1d contracted to 3s2p1d pattern {511/31/1}
 Group   3 Type H   : 4s1p contracted to 2s1p pattern {31/1}
 Group   4 Type O   : 7s4p1d contracted to 3s2p1d pattern {511/31/1}

Atom   0C    basis set group =>   1
Atom   1F    basis set group =>   2
Atom   2F    basis set group =>   2
Atom   3F    basis set group =>   2
Atom   4C    basis set group =>   1
Atom   5H    basis set group =>   3
Atom   6H    basis set group =>   3
Atom   7O    basis set group =>   4
Atom   8C    basis set group =>   1
Atom   9F    basis set group =>   2
Atom  10C    basis set group =>   1
Atom  11F    basis set group =>   2
Atom  12F    basis set group =>   2
Atom  13F    basis set group =>   2
Atom  14H    basis set group =>   3
---------------------------------
AUXILIARY/J BASIS SET INFORMATION
---------------------------------
There are 4 groups of distinct atoms

 Group   1 Type C   : 12s5p4d2f1g contracted to 6s4p3d1f1g pattern {711111/2111/211/2/1}
 Group   2 Type F   : 12s5p4d2f1g contracted to 6s4p3d1f1g pattern {711111/2111/211/2/1}
 Group   3 Type H   : 5s2p1d contracted to 3s1p1d pattern {311/2/1}
 Group   4 Type O   : 12s5p4d2f1g contracted to 6s4p3d1f1g pattern {711111/2111/211/2/1}

Atom   0C    basis set group =>   1
Atom   1F    basis set group =>   2
Atom   2F    basis set group =>   2
Atom   3F    basis set group =>   2
Atom   4C    basis set group =>   1
Atom   5H    basis set group =>   3
Atom   6H    basis set group =>   3
Atom   7O    basis set group =>   4
Atom   8C    basis set group =>   1
Atom   9F    basis set group =>   2
Atom  10C    basis set group =>   1
Atom  11F    basis set group =>   2
Atom  12F    basis set group =>   2
Atom  13F    basis set group =>   2
Atom  14H    basis set group =>   3
------------------------------------------------------------------------------
                             ORCA STARTUP CALCULATIONS
                           -- RI-GTO INTEGRALS CHOSEN --
------------------------------------------------------------------------------
------------------------------------------------------------------------------
                   ___                                                        
                  /   \      - P O W E R E D   B Y -                         
                 /     \                                                     
                 |  |  |   _    _      __       _____    __    __             
                 |  |  |  | |  | |    /  \     |  _  \  |  |  /  |          
                  \  \/   | |  | |   /    \    | | | |  |  | /  /          
                 / \  \   | |__| |  /  /\  \   | |_| |  |  |/  /          
                |  |  |   |  __  | /  /__\  \  |    /   |      \           
                |  |  |   | |  | | |   __   |  |    \   |  |\   \          
                \     /   | |  | | |  |  |  |  | |\  \  |  | \   \       
                 \___/    |_|  |_| |__|  |__|  |_| \__\ |__|  \__/        
                                                                              
                      - O R C A' S   B I G   F R I E N D -                    
                                      &                                       
                       - I N T E G R A L  F E E D E R -                       
                                                                              
 v1 FN, 2020, v2 2021, v3 2022-2024                                           
------------------------------------------------------------------------------


----------------------
SHARK INTEGRAL PACKAGE
----------------------

Number of atoms                             ...     15
Number of basis functions                   ...    183
Number of shells                            ...     81
Maximum angular momentum                    ...      2
Integral batch strategy                     ... SHARK/LIBINT Hybrid
RI-J (if used) integral strategy            ... SPLIT-RIJ (Revised 2003 algorithm where possible)
Printlevel                                  ...      1
Contraction scheme used                     ... SEGMENTED contraction
Prescreening option                         ... SCHWARTZ
   Thresh                                   ... 2.500e-11
   Tcut                                     ... 2.500e-12
   Tpresel                                  ... 2.500e-12 
Coulomb Range Separation                    ... NOT USED
Exchange Range Separation                   ... NOT USED
Multipole approximations                    ... NOT USED
Finite Nucleus Model                        ... NOT USED
CABS basis                                  ... NOT available
Auxiliary Coulomb fitting basis             ... AVAILABLE
   # of basis functions in Aux-J            ...    621
   # of shells in Aux-J                     ...    195
   Maximum angular momentum in Aux-J        ...      4
Auxiliary J/K fitting basis                 ... NOT available
Auxiliary Correlation fitting basis         ... NOT available
Auxiliary 'external' fitting basis          ... NOT available

Checking pre-screening integrals            ... done (  0.0 sec) Dimension = 81
   => SHARK Basis and OBASIS are compatible. Storing Pre-screening
Shell pair information
Shell pair cut-off parameter TPreSel        ...   2.5e-12
Total number of shell pairs                 ...      3321
Shell pairs after pre-screening             ...      2744
Total number of primitive shell pairs       ...     12885
Primitive shell pairs kept                  ...      7274
          la=0 lb=0:    725 shell pairs
          la=1 lb=0:    966 shell pairs
          la=1 lb=1:    342 shell pairs
          la=2 lb=0:    384 shell pairs
          la=2 lb=1:    268 shell pairs
          la=2 lb=2:     59 shell pairs

Checking whether 4 symmetric matrices of dimension 183 fit in memory
:Max Core in MB      =   4096.00
 MB in use           =      6.94
 MB left             =   4089.06
 MB needed           =      0.51
 Data fit in memory  = YES
Calculating RI/J V-Matrix + Cholesky decomp.... done (  0.0 sec)
Calculating Nuclear repulsion               ... done (  0.0 sec) ENN=    835.658273413262 Eh

Diagonalization of the overlap matrix:
Smallest eigenvalue                        ... 2.672e-03
Time for diagonalization                   ...    0.007 sec
Threshold for overlap eigenvalues          ... 1.000e-07
Number of eigenvalues below threshold      ... 0
Time for construction of square roots      ...    0.001 sec
Total time needed                          ...    0.009 sec

-------------------
DFT GRID GENERATION
-------------------

General Integration Accuracy     IntAcc      ... 4.388
Radial Grid Type                 RadialGrid  ... OptM3 with GC (2021)
Angular Grid (max. ang.)         AngularGrid ... 4 (Lebedev-302)
Angular grid pruning method      GridPruning ... 4 (adaptive)
Weight generation scheme         WeightScheme... mBecke (2022)
Basis function cutoff            BFCut       ... 1.0000e-11
Integration weight cutoff        WCut        ... 1.0000e-14
Partially contracted basis set               ... off
Rotationally invariant grid construction     ... off
Angular grids for H and He will be reduced by one unit

Total number of grid points                  ...    82547
Total number of batches                      ...     1298
Average number of points per batch           ...       63
Average number of grid points per atom       ...     5503

--------------------
COSX GRID GENERATION
--------------------

GRIDX 1
-------
General Integration Accuracy     IntAcc      ... 3.816
Radial Grid Type                 RadialGrid  ... OptM3 with GC (2021)
Angular Grid (max. ang.)         AngularGrid ... 1 (Lebedev-50)
Angular grid pruning method      GridPruning ... 4 (adaptive)
Weight generation scheme         WeightScheme... mBecke (2022)
Basis function cutoff            BFCut       ... 1.0000e-11
Integration weight cutoff        WCut        ... 1.0000e-14
Partially contracted basis set               ... on
Rotationally invariant grid construction     ... off
Angular grids for H and He will be reduced by one unit

Total number of grid points                  ...    10433
Total number of batches                      ...       89
Average number of points per batch           ...      117
Average number of grid points per atom       ...      696
UseSFitting                                  ... on

GRIDX 2
-------
General Integration Accuracy     IntAcc      ... 4.020
Radial Grid Type                 RadialGrid  ... OptM3 with GC (2021)
Angular Grid (max. ang.)         AngularGrid ... 2 (Lebedev-110)
Angular grid pruning method      GridPruning ... 4 (adaptive)
Weight generation scheme         WeightScheme... mBecke (2022)
Basis function cutoff            BFCut       ... 1.0000e-11
Integration weight cutoff        WCut        ... 1.0000e-14
Partially contracted basis set               ... on
Rotationally invariant grid construction     ... off
Angular grids for H and He will be reduced by one unit

Total number of grid points                  ...    24219
Total number of batches                      ...      196
Average number of points per batch           ...      123
Average number of grid points per atom       ...     1615
UseSFitting                                  ... on

GRIDX 3
-------
General Integration Accuracy     IntAcc      ... 4.338
Radial Grid Type                 RadialGrid  ... OptM3 with GC (2021)
Angular Grid (max. ang.)         AngularGrid ... 3 (Lebedev-194)
Angular grid pruning method      GridPruning ... 4 (adaptive)
Weight generation scheme         WeightScheme... mBecke (2022)
Basis function cutoff            BFCut       ... 1.0000e-11
Integration weight cutoff        WCut        ... 1.0000e-14
Partially contracted basis set               ... on
Rotationally invariant grid construction     ... off
Angular grids for H and He will be reduced by one unit

Total number of grid points                  ...    53556
Total number of batches                      ...      425
Average number of points per batch           ...      126
Average number of grid points per atom       ...     3570
UseSFitting                                  ... on
Grids setup in   1.2 sec
Initializing property integral containers    ... done (  0.0 sec)

SHARK setup successfully completed in   1.4 seconds

Maximum memory used throughout the entire STARTUP-calculation: 33.5 MB
-------------------------------------------------------------------------------
                                 ORCA GUESS
                   Start orbitals & Density for SCF / CASSCF
-------------------------------------------------------------------------------

------------
SCF SETTINGS
------------
Hamiltonian:
 Density Functional     Method          .... DFT(GTOs)
 Exchange Functional    Exchange        .... B88
   X-Alpha parameter    XAlpha          ....  0.666667
   Becke's b parameter  XBeta           ....  0.004200
 Correlation Functional Correlation     .... LYP
 LDA part of GGA corr.  LDAOpt          .... VWN-5
 Gradients option       PostSCFGGA      .... off
 Hybrid DFT is turned on
   Fraction HF Exchange ScalHFX         ....  0.200000
   Scaling of DF-GGA-X  ScalDFX         ....  0.720000
   Scaling of DF-GGA-C  ScalDFC         ....  0.810000
   Scaling of DF-LDA-C  ScalLDAC        ....  1.000000
   Perturbative correction              ....  0.000000
   NL short-range parameter             ....  4.800000
 RI-approximation to the Coulomb term is turned on
   Number of AuxJ basis functions       .... 621
   RIJ-COSX (HFX calculated with COS-X)).... on


General Settings:
 Integral files         IntName         .... TFTFE_C2
 Hartree-Fock type      HFTyp           .... RHF
 Total Charge           Charge          ....    0
 Multiplicity           Mult            ....    1
 Number of Electrons    NEL             ....   98
 Basis Dimension        Dim             ....  183
 Nuclear Repulsion      ENuc            ....    835.6582734133 Eh

Convergence Acceleration:
 AO-DIIS                CNVDIIS         .... on
   Start iteration      DIISMaxIt       ....    12
   Startup error        DIISStart       ....  0.200000
   # of expansion vecs  DIISMaxEq       ....     5
   Bias factor          DIISBfac        ....   1.050
   Max. coefficient     DIISMaxC        ....  10.000
 MO-DIIS                CNVKDIIS        .... off
 Trust-Rad. Augm. Hess. CNVTRAH         .... auto
   Auto Start mean grad. ratio tolernc. ....  1.125000
   Auto Start start iteration           ....    50
   Auto Start num. interpolation iter.  ....    10
   Max. Number of Micro iterations      ....    24
   Max. Number of Macro iterations      .... Maxiter - #DIIS iter
   Number of Davidson start vectors     ....     2
   Converg. threshold    (grad. norm)   ....   1.000e-05
   Grad. Scal. Fac. for Micro threshold ....   0.100
   Minimum threshold for Micro iter.    ....   1.000e-02
   NR start threshold (gradient norm)   ....   1.000e-04
   Initial trust radius                 ....   0.400
   Minimum AH scaling param. (alpha)    ....   1.000
   Maximum AH scaling param. (alpha)    .... 1000.000
   Quad. conv. algorithm                .... NR
   White noise on init. David. guess    .... on
   Maximum white noise                  ....   0.010
   Pseudo random numbers                .... off
   Inactive MOs                         .... canonical
   Orbital update algorithm             .... Taylor
   Preconditioner                       .... Diag
   Full preconditioner red. dimension   ....   250
 SOSCF                 CNVSOSCF           .... on
   Start iteration     SOSCFMaxIt         ....   150
   Startup grad/error  SOSCFStart         ....  0.003300
   Hessian update      SOSCFHessUp        .... L-BFGS
   Autom. constraints  SOSCFAutoConstrain .... off
 Level Shifting         CNVShift        .... on
   Level shift para.    LevelShift      ....    0.2500
   Turn off err/grad.   ShiftErr        ....    0.0010
 Zerner damping         CNVZerner       .... off
 Static damping         CNVDamp         .... on
   Fraction old density DampFac         ....    0.7000
   Max. Damping (<1)    DampMax         ....    0.9800
   Min. Damping (>=0)   DampMin         ....    0.0000
   Turn off err/grad.   DampErr         ....    0.1000

SCF Procedure:
 Maximum # iterations   MaxIter         ....   125
 SCF integral mode      SCFMode         .... Direct
   Integral package                     .... SHARK and LIBINT hybrid scheme
 Reset frequency        DirectResetFreq ....    20
 Integral Threshold     Thresh          ....  2.500e-11 Eh
 Primitive CutOff       TCut            ....  2.500e-12 Eh

Convergence Tolerance:
 Convergence Check Mode ConvCheckMode   .... Total+1el-Energy
 Convergence forced     ConvForced      .... 0
 Energy Change          TolE            ....  1.000e-08 Eh
 1-El. energy change                    ....  1.000e-05 Eh
 Orbital Gradient       TolG            ....  1.000e-05
 Orbital Rotation angle TolX            ....  1.000e-05
 DIIS Error             TolErr          ....  5.000e-07

------------------------------
INITIAL GUESS: MODEL POTENTIAL
------------------------------
Loading Hartree-Fock densities                     ... done
Calculating cut-offs                               ... done
Initializing the effective Hamiltonian             ... done
Setting up the integral package (SHARK)            ... done
Starting the Coulomb interaction                   ... done (   0.1 sec)
Making the grid                                    ... done (   0.1 sec)
Mapping shells                                     ... done
Starting the XC term evaluation                    ... done (   0.1 sec)
  promolecular density results
     # of electrons  =     97.998645437
     EX              =   -100.044089470
     EC              =     -3.639912131
     EX+EC           =   -103.684001602
Transforming the Hamiltonian                       ... done (   0.0 sec)
Diagonalizing the Hamiltonian                      ... done (   0.0 sec)
Back transforming the eigenvectors                 ... done (   0.0 sec)
Now organizing SCF variables                       ... done
                      ------------------
                      INITIAL GUESS DONE (   0.4 sec)
                      ------------------
             **** ENERGY FILE WAS UPDATED (TFTFE_C2.en.tmp) ****
Finished Guess after   0.4 sec
Maximum memory used throughout the entire GUESS-calculation: 12.0 MB

-------------------------------------------------------------------------------------------
                                      ORCA LEAN-SCF
                              memory conserving SCF solver
-------------------------------------------------------------------------------------------

----------------------------------------D-I-I-S--------------------------------------------
Iteration    Energy (Eh)           Delta-E    RMSDP     MaxDP     DIISErr   Damp  Time(sec)
-------------------------------------------------------------------------------------------
               ***  Starting incremental Fock matrix formation  ***
    1    -927.0510159105413095     0.00e+00  2.84e-03  8.35e-02  1.86e-01  0.700   3.4
    2    -927.1526551624103831    -1.02e-01  1.57e-03  4.37e-02  7.35e-02  0.700   1.7
                               ***Turning on AO-DIIS***
    3    -927.1865053731849002    -3.39e-02  4.56e-04  1.25e-02  2.13e-02  0.700   1.7
    4    -927.2091023038130970    -2.26e-02  7.99e-04  1.48e-02  1.29e-02  0.000   1.6
                              *** Initializing SOSCF ***
---------------------------------------S-O-S-C-F--------------------------------------
Iteration    Energy (Eh)           Delta-E    RMSDP     MaxDP     MaxGrad    Time(sec)
--------------------------------------------------------------------------------------
    5    -927.2609745389693217    -5.19e-02  1.36e-04  3.24e-03  2.52e-03     1.6
               *** Restarting incremental Fock matrix formation ***
    6    -927.2610898203872694    -1.15e-04  6.02e-05  1.48e-03  3.50e-04     3.4
    7    -927.2610889290731393     8.91e-07  3.00e-05  6.26e-04  3.90e-04     2.5
    8    -927.2610956004725722    -6.67e-06  6.59e-06  2.02e-04  2.99e-05     2.4
    9    -927.2610956192618232    -1.88e-08  2.72e-06  8.49e-05  2.37e-05     2.2
   10    -927.2610956625012477    -4.32e-08  1.03e-06  2.30e-05  8.93e-06     2.0
   11    -927.2610956644284670    -1.93e-09  5.38e-07  1.43e-05  6.84e-06     1.8
                 **** Energy Check signals convergence ****

               *****************************************************
               *                     SUCCESS                       *
               *           SCF CONVERGED AFTER  11 CYCLES          *
               *****************************************************

Recomputing exchange energy using gridx3       ... done (    5.772 sec)
Old exchange energy                            :    -20.066809665 Eh
New exchange energy                            :    -20.066929240 Eh
Exchange energy change after final integration :     -0.000119575 Eh
Total energy after final integration           :   -927.261215238 Eh
             **** ENERGY FILE WAS UPDATED (TFTFE_C2.en.tmp) ****

----------------
TOTAL SCF ENERGY
----------------

Total Energy       :       -927.26121523766017 Eh          -25232.06044 eV

Components:
Nuclear Repulsion  :        835.65827341326190 Eh           22739.41767 eV
Electronic Energy  :      -1762.91936907583340 Eh          -47971.47486 eV
One Electron Energy:      -2947.89063870894825 Eh          -80216.18239 eV
Two Electron Energy:       1184.97126963311484 Eh           32244.70754 eV

Virial components:
Potential Energy   :      -1848.88489167442253 Eh          -50310.71565 eV
Kinetic Energy     :        921.62367643676237 Eh           25078.65521 eV
Virial Ratio       :          2.00611696394638

DFT components:
N(Alpha)           :       48.999975283411 electrons
N(Beta)            :       48.999975283411 electrons
N(Total)           :       97.999950566822 electrons
E(X)               :      -79.939979602095 Eh       
E(C)               :       -4.256360920915 Eh       
E(XC)              :      -84.196340523010 Eh       

---------------
SCF CONVERGENCE
---------------

  Last Energy change         ...    1.9272e-09  Tolerance :   1.0000e-08
  Last MAX-Density change    ...    1.4300e-05  Tolerance :   1.0000e-07
  Last RMS-Density change    ...    5.3766e-07  Tolerance :   5.0000e-09
  Last DIIS Error            ...    2.5238e-03  Tolerance :   5.0000e-07
  Last Orbital Gradient      ...    6.8450e-06  Tolerance :   1.0000e-05
  Last Orbital Rotation      ...    3.5971e-06  Tolerance :   1.0000e-05


----------------
ORBITAL ENERGIES
----------------

  NO   OCC          E(Eh)            E(eV) 
   0   2.0000     -24.736955      -673.1268 
   1   2.0000     -24.735249      -673.0803 
   2   2.0000     -24.730239      -672.9440 
   3   2.0000     -24.730106      -672.9404 
   4   2.0000     -24.729355      -672.9200 
   5   2.0000     -24.725885      -672.8255 
   6   2.0000     -24.724846      -672.7973 
   7   2.0000     -19.204645      -522.5850 
   8   2.0000     -10.452903      -284.4380 
   9   2.0000     -10.438316      -284.0410 
  10   2.0000     -10.387105      -282.6475 
  11   2.0000     -10.294995      -280.1411 
  12   2.0000      -1.306764       -35.5588 
  13   2.0000      -1.288984       -35.0750 
  14   2.0000      -1.263662       -34.3860 
  15   2.0000      -1.217580       -33.1320 
  16   2.0000      -1.216052       -33.0905 
  17   2.0000      -1.214614       -33.0513 
  18   2.0000      -1.204301       -32.7707 
  19   2.0000      -1.081703       -29.4346 
  20   2.0000      -0.811874       -22.0922 
  21   2.0000      -0.775135       -21.0925 
  22   2.0000      -0.693874       -18.8813 
  23   2.0000      -0.663871       -18.0648 
  24   2.0000      -0.620488       -16.8843 
  25   2.0000      -0.612011       -16.6537 
  26   2.0000      -0.611560       -16.6414 
  27   2.0000      -0.606069       -16.4920 
  28   2.0000      -0.592399       -16.1200 
  29   2.0000      -0.573363       -15.6020 
  30   2.0000      -0.566057       -15.4032 
  31   2.0000      -0.562896       -15.3172 
  32   2.0000      -0.508799       -13.8451 
  33   2.0000      -0.485385       -13.2080 
  34   2.0000      -0.479726       -13.0540 
  35   2.0000      -0.478346       -13.0165 
  36   2.0000      -0.464959       -12.6522 
  37   2.0000      -0.460018       -12.5177 
  38   2.0000      -0.449844       -12.2409 
  39   2.0000      -0.442756       -12.0480 
  40   2.0000      -0.438470       -11.9314 
  41   2.0000      -0.434791       -11.8313 
  42   2.0000      -0.429867       -11.6973 
  43   2.0000      -0.426390       -11.6027 
  44   2.0000      -0.421938       -11.4815 
  45   2.0000      -0.421610       -11.4726 
  46   2.0000      -0.398500       -10.8437 
  47   2.0000      -0.371362       -10.1053 
  48   2.0000      -0.336489        -9.1563 
  49   0.0000       0.024425         0.6646 
  50   0.0000       0.042242         1.1495 
  51   0.0000       0.060787         1.6541 
  52   0.0000       0.072910         1.9840 
  53   0.0000       0.094168         2.5625 
  54   0.0000       0.104983         2.8567 
  55   0.0000       0.159045         4.3278 
  56   0.0000       0.178926         4.8688 
  57   0.0000       0.191619         5.2142 
  58   0.0000       0.193981         5.2785 
  59   0.0000       0.199734         5.4350 
*Only the first 10 virtual orbitals were printed.

                    ********************************
                    * MULLIKEN POPULATION ANALYSIS *
                    ********************************

-----------------------
MULLIKEN ATOMIC CHARGES
-----------------------
   0 C :    0.496222
   1 F :   -0.168636
   2 F :   -0.178198
   3 F :   -0.167395
   4 C :    0.154286
   5 H :    0.048861
   6 H :    0.040931
   7 O :   -0.351623
   8 C :    0.425036
   9 F :   -0.165854
  10 C :    0.441509
  11 F :   -0.186107
  12 F :   -0.200817
  13 F :   -0.199015
  14 H :    0.010799
Sum of atomic charges:    0.0000000

--------------------------------
MULLIKEN REDUCED ORBITAL CHARGES
--------------------------------
  0 C s       :     2.964535  s :     2.964535
      pz      :     0.828639  p :     2.364678
      px      :     0.810840
      py      :     0.725198
      dz2     :     0.024076  d :     0.174564
      dxz     :     0.035645
      dyz     :     0.045056
      dx2y2   :     0.041765
      dxy     :     0.028022

  1 F s       :     3.899760  s :     3.899760
      pz      :     1.763554  p :     5.260758
      px      :     1.890422
      py      :     1.606782
      dz2     :     0.001103  d :     0.008118
      dxz     :     0.000741
      dyz     :     0.003082
      dx2y2   :     0.001850
      dxy     :     0.001342

  2 F s       :     3.900316  s :     3.900316
      pz      :     1.835140  p :     5.269935
      px      :     1.543331
      py      :     1.891464
      dz2     :     0.000956  d :     0.007946
      dxz     :     0.002637
      dyz     :     0.000362
      dx2y2   :     0.002556
      dxy     :     0.001436

  3 F s       :     3.899378  s :     3.899378
      pz      :     1.735870  p :     5.259887
      px      :     1.900917
      py      :     1.623100
      dz2     :     0.001210  d :     0.008131
      dxz     :     0.000736
      dyz     :     0.003337
      dx2y2   :     0.001785
      dxy     :     0.001062

  4 C s       :     2.999422  s :     2.999422
      pz      :     0.999411  p :     2.789478
      px      :     0.760890
      py      :     1.029177
      dz2     :     0.004606  d :     0.056814
      dxz     :     0.016306
      dyz     :     0.010214
      dx2y2   :     0.014881
      dxy     :     0.010807

  5 H s       :     0.928400  s :     0.928400
      pz      :     0.007667  p :     0.022738
      px      :     0.002756
      py      :     0.012315

  6 H s       :     0.937471  s :     0.937471
      pz      :     0.007242  p :     0.021598
      px      :     0.003170
      py      :     0.011186

  7 O s       :     3.785050  s :     3.785050
      pz      :     1.550521  p :     4.551542
      px      :     1.174046
      py      :     1.826976
      dz2     :     0.002399  d :     0.015031
      dxz     :     0.006347
      dyz     :     0.002100
      dx2y2   :     0.002089
      dxy     :     0.002096

  8 C s       :     3.026789  s :     3.026789
      pz      :     0.876767  p :     2.391639
      px      :     0.748006
      py      :     0.766866
      dz2     :     0.023611  d :     0.156536
      dxz     :     0.035716
      dyz     :     0.030954
      dx2y2   :     0.039877
      dxy     :     0.026378

  9 F s       :     3.902533  s :     3.902533
      pz      :     1.774175  p :     5.255318
      px      :     1.581805
      py      :     1.899339
      dz2     :     0.001075  d :     0.008003
      dxz     :     0.003100
      dyz     :     0.000554
      dx2y2   :     0.002074
      dxy     :     0.001200

 10 C s       :     3.006937  s :     3.006937
      pz      :     0.902066  p :     2.432673
      px      :     0.819743
      py      :     0.710864
      dz2     :     0.016705  d :     0.118882
      dxz     :     0.023507
      dyz     :     0.025867
      dx2y2   :     0.032633
      dxy     :     0.020169

 11 F s       :     3.903475  s :     3.903475
      pz      :     1.888012  p :     5.274792
      px      :     1.890315
      py      :     1.496464
      dz2     :     0.001026  d :     0.007840
      dxz     :     0.000166
      dyz     :     0.002067
      dx2y2   :     0.003078
      dxy     :     0.001503

 12 F s       :     3.908294  s :     3.908294
      pz      :     1.892239  p :     5.284555
      px      :     1.906295
      py      :     1.486021
      dz2     :     0.001030  d :     0.007967
      dxz     :     0.000159
      dyz     :     0.002074
      dx2y2   :     0.003101
      dxy     :     0.001603

 13 F s       :     3.908120  s :     3.908120
      pz      :     1.777043  p :     5.282917
      px      :     1.619133
      py      :     1.886741
      dz2     :     0.001175  d :     0.007978
      dxz     :     0.003032
      dyz     :     0.000676
      dx2y2   :     0.001835
      dxy     :     0.001261

 14 H s       :     0.969070  s :     0.969070
      pz      :     0.007511  p :     0.020130
      px      :     0.010268
      py      :     0.002352



                     *******************************
                     * LOEWDIN POPULATION ANALYSIS *
                     *******************************

----------------------
LOEWDIN ATOMIC CHARGES
----------------------
   0 C :    0.177328
   1 F :   -0.059963
   2 F :   -0.067353
   3 F :   -0.059456
   4 C :    0.050082
   5 H :    0.029223
   6 H :    0.027402
   7 O :   -0.147508
   8 C :    0.159404
   9 F :   -0.054377
  10 C :    0.162696
  11 F :   -0.071497
  12 F :   -0.079908
  13 F :   -0.077816
  14 H :    0.011741

-------------------------------
LOEWDIN REDUCED ORBITAL CHARGES
-------------------------------
  0 C s       :     2.861378  s :     2.861378
      pz      :     0.897110  p :     2.594617
      px      :     0.892583
      py      :     0.804924
      dz2     :     0.044218  d :     0.366676
      dxz     :     0.082034
      dyz     :     0.097123
      dx2y2   :     0.091061
      dxy     :     0.052241

  1 F s       :     3.737297  s :     3.737297
      pz      :     1.778656  p :     5.309861
      px      :     1.887120
      py      :     1.644085
      dz2     :     0.001350  d :     0.012806
      dxz     :     0.000999
      dyz     :     0.005498
      dx2y2   :     0.003074
      dxy     :     0.001885

  2 F s       :     3.739095  s :     3.739095
      pz      :     1.840971  p :     5.315773
      px      :     1.582611
      py      :     1.892192
      dz2     :     0.001422  d :     0.012485
      dxz     :     0.004349
      dyz     :     0.000494
      dx2y2   :     0.004404
      dxy     :     0.001817

  3 F s       :     3.737148  s :     3.737148
      pz      :     1.754635  p :     5.309480
      px      :     1.895654
      py      :     1.659190
      dz2     :     0.001494  d :     0.012829
      dxz     :     0.000928
      dyz     :     0.006034
      dx2y2   :     0.003017
      dxy     :     0.001356

  4 C s       :     2.860964  s :     2.860964
      pz      :     1.024094  p :     2.956129
      px      :     0.845860
      py      :     1.086175
      dz2     :     0.009226  d :     0.132826
      dxz     :     0.040414
      dyz     :     0.026890
      dx2y2   :     0.034080
      dxy     :     0.022216

  5 H s       :     0.899729  s :     0.899729
      pz      :     0.024349  p :     0.071047
      px      :     0.010305
      py      :     0.036393

  6 H s       :     0.904263  s :     0.904263
      pz      :     0.023242  p :     0.068335
      px      :     0.012550
      py      :     0.032543

  7 O s       :     3.487290  s :     3.487290
      pz      :     1.586550  p :     4.633152
      px      :     1.229927
      py      :     1.816674
      dz2     :     0.003435  d :     0.027066
      dxz     :     0.012496
      dyz     :     0.002418
      dx2y2   :     0.004787
      dxy     :     0.003930

  8 C s       :     2.880449  s :     2.880449
      pz      :     0.954485  p :     2.630711
      px      :     0.815950
      py      :     0.860276
      dz2     :     0.046178  d :     0.329437
      dxz     :     0.078540
      dyz     :     0.069463
      dx2y2   :     0.086531
      dxy     :     0.048725

  9 F s       :     3.738339  s :     3.738339
      pz      :     1.787936  p :     5.303532
      px      :     1.619101
      py      :     1.896495
      dz2     :     0.001358  d :     0.012506
      dxz     :     0.005452
      dyz     :     0.000691
      dx2y2   :     0.003459
      dxy     :     0.001545

 10 C s       :     2.877807  s :     2.877807
      pz      :     0.979911  p :     2.698310
      px      :     0.904483
      py      :     0.813916
      dz2     :     0.034611  d :     0.261187
      dxz     :     0.054208
      dyz     :     0.059758
      dx2y2   :     0.073279
      dxy     :     0.039331

 11 F s       :     3.740617  s :     3.740617
      pz      :     1.886754  p :     5.318387
      px      :     1.889394
      py      :     1.542238
      dz2     :     0.001740  d :     0.012493
      dxz     :     0.000248
      dyz     :     0.003122
      dx2y2   :     0.005442
      dxy     :     0.001941

 12 F s       :     3.739518  s :     3.739518
      pz      :     1.892515  p :     5.328101
      px      :     1.905488
      py      :     1.530098
      dz2     :     0.001713  d :     0.012288
      dxz     :     0.000215
      dyz     :     0.003054
      dx2y2   :     0.005297
      dxy     :     0.002009

 13 F s       :     3.738913  s :     3.738913
      pz      :     1.787270  p :     5.326611
      px      :     1.655685
      py      :     1.883656
      dz2     :     0.001580  d :     0.012292
      dxz     :     0.005158
      dyz     :     0.000910
      dx2y2   :     0.002903
      dxy     :     0.001742

 14 H s       :     0.920653  s :     0.920653
      pz      :     0.023876  p :     0.067605
      px      :     0.034721
      py      :     0.009008



                      *****************************
                      * MAYER POPULATION ANALYSIS *
                      *****************************

  NA   - Mulliken gross atomic population
  ZA   - Total nuclear charge
  QA   - Mulliken gross atomic charge
  VA   - Mayer's total valence
  BVA  - Mayer's bonded valence
  FA   - Mayer's free valence

  ATOM       NA         ZA         QA         VA         BVA        FA
  0 C      5.5038     6.0000     0.4962     4.4855     4.4855    -0.0000
  1 F      9.1686     9.0000    -0.1686     1.1826     1.1826     0.0000
  2 F      9.1782     9.0000    -0.1782     1.1728     1.1728    -0.0000
  3 F      9.1674     9.0000    -0.1674     1.1837     1.1837     0.0000
  4 C      5.8457     6.0000     0.1543     3.8998     3.8998    -0.0000
  5 H      0.9511     1.0000     0.0489     1.0108     1.0108    -0.0000
  6 H      0.9591     1.0000     0.0409     0.9933     0.9933    -0.0000
  7 O      8.3516     8.0000    -0.3516     2.0731     2.0731     0.0000
  8 C      5.5750     6.0000     0.4250     4.3158     4.3158     0.0000
  9 F      9.1659     9.0000    -0.1659     1.1911     1.1911     0.0000
 10 C      5.5585     6.0000     0.4415     4.1141     4.1141    -0.0000
 11 F      9.1861     9.0000    -0.1861     1.1573     1.1573     0.0000
 12 F      9.2008     9.0000    -0.2008     1.1475     1.1475     0.0000
 13 F      9.1990     9.0000    -0.1990     1.1535     1.1535     0.0000
 14 H      0.9892     1.0000     0.0108     0.9933     0.9933    -0.0000

  Mayer bond orders larger than 0.100000
B(  0-C ,  1-F ) :   1.1429 B(  0-C ,  2-F ) :   1.1134 B(  0-C ,  3-F ) :   1.1465 
B(  0-C ,  4-C ) :   1.0169 B(  4-C ,  5-H ) :   0.9189 B(  4-C ,  6-H ) :   0.9274 
B(  4-C ,  7-O ) :   0.9515 B(  7-O ,  8-C ) :   1.0582 B(  8-C ,  9-F ) :   1.1368 
B(  8-C , 10-C ) :   0.9268 B(  8-C , 11-F ) :   1.0742 B( 10-C , 12-F ) :   1.0887 
B( 10-C , 13-F ) :   1.0928 B( 10-C , 14-H ) :   0.9377 

-------
TIMINGS
-------

Total SCF time: 0 days 0 hours 0 min 31 sec 

Total time                  ....      31.560 sec
Sum of individual times     ....      29.929 sec  ( 94.8%)

SCF preparation             ....       0.067 sec  (  0.2%)
Fock matrix formation       ....      29.762 sec  ( 94.3%)
  Startup                   ....       0.002 sec  (  0.0% of F)
  Split-RI-J                ....       2.541 sec  (  8.5% of F)
  Chain of spheres X        ....      24.193 sec  ( 81.3% of F)
  XC integration            ....       4.566 sec  ( 15.3% of F)
    XC Preparation          ....       0.000 sec  (  0.0% of XC)
    Basis function eval.    ....       1.810 sec  ( 39.6% of XC)
    Density eval.           ....       1.143 sec  ( 25.0% of XC)
    XC-Functional eval.     ....       0.326 sec  (  7.1% of XC)
    XC-Potential eval.      ....       1.113 sec  ( 24.4% of XC)
Diagonalization             ....       0.000 sec  (  0.0%)
Density matrix formation    ....       0.012 sec  (  0.0%)
Total Energy calculation    ....       0.002 sec  (  0.0%)
Population analysis         ....       0.007 sec  (  0.0%)
Orbital Transformation      ....       0.010 sec  (  0.0%)
Orbital Orthonormalization  ....       0.000 sec  (  0.0%)
DIIS solution               ....       0.039 sec  (  0.1%)
SOSCF solution              ....       0.031 sec  (  0.1%)
Finished LeanSCF after  31.6 sec

Maximum memory used throughout the entire LEANSCF-calculation: 19.9 MB

------------------------------------------------------------------------------
                         ORCA PROPERTY INTEGRAL CALCULATIONS
------------------------------------------------------------------------------

GBWName                                   ... TFTFE_C2.gbw
Number of atoms                           ...     15
Number of basis functions                 ...    183
Max core memory                           ...   4096 MB

Dipole integrals                          ... YES
Quadrupole integrals                      ...  NO
Linear momentum integrals                 ...  NO
Angular momentum integrals                ...  NO
Higher moments length integrals           ...  NO
Higher moments velocity integrals         ...  NO
Kinetic energy integrals                  ...  NO
GIAO right hand sides                     ...  NO
GIAO dipole derivative integrals          ...  NO
SOC integrals                             ...  NO
EPR diamagnetic integrals (GIAO)          ...  NO
EPR gauge integrals                       ...  NO
Field gradient integrals                  ...  NO (   0 nuclei)
Spin-dipole/Fermi contact integrals       ...  NO (   0 nuclei)
Contact density integrals                 ...  NO (   0 nuclei)
Nucleus-orbit integrals                   ...  NO (   0 nuclei)
Geometric perturbations                   ...  NO (  15 nuclei)

Choice of electric origin   ... Center of mass
Position of electric origin ... (  0.0583,  0.9103,  1.8999) 
Choice of magnetic origin   ... GIAO
Position of magnetic origin ... (  0.0000,  0.0000,  0.0000) 

Calculating integrals                     ... Electric Dipole (Length)     done (  0.0 sec)

Property integrals calculated in   0.0 sec

Maximum memory used throughout the entire PROPINT-calculation: 12.3 MB

-------------------------   --------------------
FINAL SINGLE POINT ENERGY      -927.261215237660
-------------------------   --------------------

------------------------------------------------------------------------------
                         ORCA SCF GRADIENT CALCULATION
------------------------------------------------------------------------------

Nuc. rep. gradient        (SHARK) ... done (  0.0 sec)
HCore & Overlap gradient  (SHARK) ... done (  0.2 sec)
Split-RIJ-J gradient      (SHARK) ... done (  0.9 sec)
done ( 16.6 sec)
XC gradient                       ... done (  3.1 sec)

------------------
CARTESIAN GRADIENT
------------------

   1   C   :    0.001735987   -0.000736623    0.011679692
   2   F   :    0.000980431    0.010203367   -0.005822303
   3   F   :   -0.012029107    0.001834528    0.000524532
   4   F   :   -0.002153144   -0.009462998   -0.006610612
   5   C   :   -0.006972277    0.005562379   -0.001620394
   6   H   :    0.002410954   -0.004678769    0.000400179
   7   H   :    0.008269351    0.003659420   -0.001083431
   8   O   :   -0.015866663   -0.001790728   -0.023991672
   9   C   :    0.002251578   -0.011998436    0.047210153
  10   F   :    0.017924502    0.005124225   -0.011172045
  11   C   :   -0.010849011    0.015520118   -0.012862434
  12   F   :   -0.002528994    0.007014981   -0.011047959
  13   F   :    0.003782128   -0.010204270    0.007048463
  14   F   :    0.006294904   -0.006520876    0.009654725
  15   H   :    0.006749362   -0.003526318   -0.002306896

Difference to translation invariance:
           :    0.0000000001    0.0000000000   -0.0000000001

Difference to rotation invariance:
           :    0.0002447696    0.0005525978   -0.0003459790

Norm of the Cartesian gradient     ...    0.0744806562
RMS gradient                       ...    0.0111029207
MAX gradient                       ...    0.0472101530

-------
TIMINGS
-------

Total SCF gradient time     ....       20.748 sec

Densities                   ....       0.000 sec  (  0.0%)
One electron gradient       ....       0.155 sec  (  0.7%)
RI-J Coulomb gradient       ....       0.915 sec  (  4.4%)
COSX gradient               ....      16.620 sec  ( 80.1%)
XC gradient                 ....       3.058 sec  ( 14.7%)

Maximum memory used throughout the entire SCFGRAD-calculation: 23.8 MB
------------------------------------------------------------------------------
                         ORCA GEOMETRY RELAXATION STEP
------------------------------------------------------------------------------

Reading the OPT-File                    .... done
Getting information on internals        .... done
Copying old internal coords+grads       .... done
Making the new internal coordinates     .... (2022 redundants) done
Validating the new internal coordinates .... (2022 redundants) done
Calculating the B-matrix                .... done
Calculating the G,G- and P matrices     .... done
Transforming gradient to internals      .... done
Projecting the internal gradient        .... done
Number of atoms                         ....  15
Number of internal coordinates          ....  57
Current Energy                          ....  -927.261215238 Eh
Current gradient norm                   ....     0.074480656 Eh/bohr
Maximum allowed component of the step   ....  0.300
Current trust radius                    ....  0.300
Evaluating the initial hessian          ....  (Almloef) done
Projecting the Hessian                  .... done
Forming the augmented Hessian           .... done
Diagonalizing the augmented Hessian     .... done
Last element of RFO vector              ....  0.984422982
Lowest eigenvalues of augmented Hessian:
 -0.010886060  0.010684389  0.011410722  0.018385874  0.019082059
Length of the computed step             ....  0.178598390
The final length of the internal step   ....  0.178598390
Converting the step to Cartesian space:
 Initial RMS(Int)=    0.0236559347
Transforming coordinates:
 Iter   0:  RMS(Cart)=    0.0716530782 RMS(Int)=    0.0234021588
 Iter   5:  RMS(Cart)=    0.0000000219 RMS(Int)=    0.0000000176
done
Storing new coordinates                 .... done

                                .--------------------.
          ----------------------|Geometry convergence|-------------------------
          Item                value                   Tolerance       Converged
          ---------------------------------------------------------------------
          RMS gradient        0.0088810771            0.0001000000      NO
          MAX gradient        0.0337499676            0.0003000000      NO
          RMS step            0.0236559347            0.0020000000      NO
          MAX step            0.0671960036            0.0040000000      NO
          -------------------------------------------------------------------------
          ........................................................
          Max(Bonds)      0.0356      Max(Angles)    3.06
          Max(Dihed)        2.54      Max(Improp)    0.00
          ---------------------------------------------------------------------

The optimization has not yet converged - more geometry cycles are needed


    ---------------------------------------------------------------------------
                         Redundant Internal Coordinates
                            (Angstroem and degrees)

        Definition                    Value    dE/dq     Step     New-Value
    ----------------------------------------------------------------------------
     1. B(F   1,C   0)                1.3497  0.011678 -0.0101    1.3396   
     2. B(F   2,C   0)                1.3542  0.011281 -0.0099    1.3443   
     3. B(F   3,C   0)                1.3492  0.011649 -0.0100    1.3392   
     4. B(C   4,C   0)                1.5266  0.008301 -0.0113    1.5153   
     5. B(H   5,C   4)                1.0953 -0.003564  0.0052    1.1005   
     6. B(H   6,C   4)                1.0952 -0.005624  0.0082    1.1034   
     7. B(O   7,C   4)                1.4304  0.007145 -0.0077    1.4228   
     8. B(C   8,O   7)                1.4254  0.033750 -0.0356    1.3898   
     9. B(F   9,C   8)                1.3576  0.020582 -0.0183    1.3393   
    10. B(C  10,C   8)                1.5365  0.004182 -0.0059    1.5306   
    11. B(F  11,C   8)                1.3598  0.004062 -0.0036    1.3562   
    12. B(F  12,C  10)                1.3589  0.008389 -0.0075    1.3514   
    13. B(F  13,C  10)                1.3592  0.009144 -0.0082    1.3510   
    14. B(H  14,C  10)                1.0932 -0.007239  0.0104    1.1037   
    15. A(F   2,C   0,F   3)          107.48 -0.003953    0.53    108.02   
    16. A(F   1,C   0,F   3)          108.44  0.000303   -0.04    108.40   
    17. A(F   3,C   0,C   4)          111.82 -0.000056    0.01    111.84   
    18. A(F   2,C   0,C   4)          109.91  0.007612   -1.07    108.84   
    19. A(F   1,C   0,F   2)          107.48 -0.003867    0.54    108.02   
    20. A(F   1,C   0,C   4)          111.53 -0.000406    0.07    111.61   
    21. A(C   0,C   4,H   5)          108.40 -0.000142   -0.50    107.90   
    22. A(H   6,C   4,O   7)          108.27 -0.012336    2.19    110.47   
    23. A(H   5,C   4,O   7)          110.73 -0.004459    0.74    111.47   
    24. A(C   0,C   4,O   7)          111.98  0.015951   -2.73    109.25   
    25. A(H   5,C   4,H   6)          108.41 -0.001044    0.96    109.37   
    26. A(C   0,C   4,H   6)          108.96  0.001683   -0.56    108.39   
    27. A(C   4,O   7,C   8)          113.70 -0.013463    1.91    115.61   
    28. A(O   7,C   8,C  10)          115.87  0.009875   -1.77    114.10   
    29. A(O   7,C   8,F   9)          106.19 -0.001394   -0.20    105.99   
    30. A(C  10,C   8,F  11)          110.27  0.011968   -1.71    108.56   
    31. A(F   9,C   8,F  11)          106.37 -0.006780    1.78    108.15   
    32. A(O   7,C   8,F  11)          107.00 -0.016816    3.06    110.06   
    33. A(F   9,C   8,C  10)          110.64  0.000877   -0.70    109.94   
    34. A(F  13,C  10,H  14)          107.76 -0.005798    0.85    108.61   
    35. A(F  12,C  10,H  14)          107.97 -0.007127    1.07    109.04   
    36. A(C   8,C  10,H  14)          111.44 -0.000270   -0.05    111.39   
    37. A(F  12,C  10,F  13)          106.65 -0.014116    2.02    108.66   
    38. A(C   8,C  10,F  13)          111.34  0.012931   -1.84    109.50   
    39. A(C   8,C  10,F  12)          111.46  0.012731   -1.81    109.65   
    40. D(H   5,C   4,C   0,F   3)   -179.64  0.000140   -0.11   -179.75   
    41. D(H   5,C   4,C   0,F   1)     58.74  0.000079   -0.12     58.62   
    42. D(H   6,C   4,C   0,F   2)     57.44 -0.000198    0.41     57.85   
    43. D(H   6,C   4,C   0,F   3)    -61.85 -0.000250    0.44    -61.41   
    44. D(H   5,C   4,C   0,F   2)    -60.35  0.000192   -0.14    -60.49   
    45. D(H   6,C   4,C   0,F   1)    176.54 -0.000311    0.42    176.96   
    46. D(C   8,O   7,C   4,C   0)    159.56  0.001825   -1.42    158.14   
    47. D(C   8,O   7,C   4,H   6)    -80.29  0.005622   -2.36    -82.65   
    48. D(C   8,O   7,C   4,H   5)     38.44 -0.005813    0.58     39.02   
    49. D(F  11,C   8,O   7,C   4)    -59.12 -0.008015    0.76    -58.35   
    50. D(C  10,C   8,O   7,C   4)     64.31  0.001231   -0.30     64.01   
    51. D(F   9,C   8,O   7,C   4)   -172.42  0.007866   -2.54   -174.95   
    52. D(F  12,C  10,C   8,F  11)    178.93 -0.001015   -0.67    178.26   
    53. D(F  12,C  10,C   8,F   9)    -63.68 -0.001459    0.04    -63.64   
    54. D(F  12,C  10,C   8,O   7)     57.23  0.004584   -2.08     55.16   
    55. D(F  13,C  10,C   8,F  11)    -62.12 -0.001789   -0.55    -62.67   
    56. D(F  13,C  10,C   8,F   9)     55.27 -0.002233    0.16     55.43   
    57. D(F  13,C  10,C   8,O   7)    176.18  0.003809   -1.95    174.23   
    ----------------------------------------------------------------------------

Geometry step timings:
Preparation and reading OPT file:      0.000 s ( 0.928 %)
Internal coordinates            :      0.000 s ( 0.887 %)
B/P matrices and projection     :      0.001 s (23.719 %)
Hessian update/contruction      :      0.000 s ( 7.826 %)
Making the step                 :      0.000 s (18.152 %)
Converting the step to Cartesian:      0.000 s ( 3.429 %)
Storing new data                :      0.000 s ( 1.331 %)
Checking convergence            :      0.000 s ( 0.928 %)
Final printing                  :      0.001 s (42.800 %)
Total time                      :      0.002 s

Time for energy+gradient        :     54.438 s
Time for complete geometry iter :     54.471 s

         *************************************************************
         *                GEOMETRY OPTIMIZATION CYCLE   2            *
         *************************************************************
---------------------------------
CARTESIAN COORDINATES (ANGSTROEM)
---------------------------------
  C     -2.028027    0.799249   -0.083106
  F     -1.733985    1.879260   -0.819058
  F     -3.254821    0.972965    0.438459
  F     -2.069582   -0.265985   -0.893588
  C     -1.038017    0.608515    1.048117
  H     -1.059723    1.514310    1.672736
  H     -1.359581   -0.258516    1.650093
  O      0.257277    0.382888    0.504426
  C      1.321777    0.655853    1.355286
  F      2.430544    0.488262    0.622977
  C      1.375662   -0.239805    2.595270
  F      1.274310    1.949712    1.758839
  F      1.384911   -1.537486    2.218064
  F      2.507131    0.016640    3.287608
  H      0.510202   -0.063432    3.257038

----------------------------
CARTESIAN COORDINATES (A.U.)
----------------------------
  NO LB      ZA    FRAG     MASS         X           Y           Z
   0 C     6.0000    0    12.011   -3.832415    1.510362   -0.157048
   1 F     9.0000    0    18.998   -3.276758    3.551286   -1.547796
   2 F     9.0000    0    18.998   -6.150721    1.838637    0.828567
   3 F     9.0000    0    18.998   -3.910944   -0.502639   -1.688637
   4 C     6.0000    0    12.011   -1.961568    1.149927    1.980654
   5 H     1.0000    0     1.008   -2.002586    2.861631    3.161013
   6 H     1.0000    0     1.008   -2.569235   -0.488525    3.118224
   7 O     8.0000    0    15.999    0.486184    0.723554    0.953228
   8 C     6.0000    0    12.011    2.497797    1.239383    2.561119
   9 F     9.0000    0    18.998    4.593063    0.922681    1.177256
  10 C     6.0000    0    12.011    2.599624   -0.453166    4.904349
  11 F     9.0000    0    18.998    2.408097    3.684422    3.323723
  12 F     9.0000    0    18.998    2.617103   -2.905428    4.191534
  13 F     9.0000    0    18.998    4.737791    0.031446    6.212679
  14 H     1.0000    0     1.008    0.964142   -0.119869    6.154910

--------------------------------
INTERNAL COORDINATES (ANGSTROEM)
--------------------------------
 C      0   0   0     0.000000000000     0.00000000     0.00000000
 F      1   0   0     1.339592243983     0.00000000     0.00000000
 F      1   2   0     1.344333279318   108.01553252     0.00000000
 F      1   2   3     1.339153509960   108.39861301   116.80284735
 C      1   2   3     1.515310151831   111.60491934   240.40011829
 H      5   1   2     1.100492910822   107.89221508    58.63174417
 H      5   1   2     1.103413459003   108.40801145   176.95334983
 O      5   1   2     1.422777131577   109.23753289   297.34563790
 C      8   5   1     1.389831096496   115.60749944   158.15898812
 F      9   8   5     1.339301318802   105.94787918   185.03200473
 C      9   8   5     1.530577812169   114.07965730    63.98743170
 F      9   8   5     1.356163275969   110.04412387   301.68820584
 F     11   9   8     1.351423814481   109.63470510    55.15357270
 F     11   9   8     1.351043757356   109.48526260   174.24084407
 H     11   9   8     1.103659950512   111.38591581   294.38033038

---------------------------
INTERNAL COORDINATES (A.U.)
---------------------------
 C      0   0   0     0.000000000000     0.00000000     0.00000000
 F      1   0   0     2.531462472253     0.00000000     0.00000000
 F      1   2   0     2.540421730627   108.01553252     0.00000000
 F      1   2   3     2.530633385103   108.39861301   116.80284735
 C      1   2   3     2.863521194910   111.60491934   240.40011829
 H      5   1   2     2.079630213775   107.89221508    58.63174417
 H      5   1   2     2.085149249998   108.40801145   176.95334983
 O      5   1   2     2.688659128287   109.23753289   297.34563790
 C      8   5   1     2.626400144784   115.60749944   158.15898812
 F      9   8   5     2.530912703335   105.94787918   185.03200473
 C      9   8   5     2.892372891655   114.07965730    63.98743170
 F      9   8   5     2.562777184464   110.04412387   301.68820584
 F     11   9   8     2.553820900228   109.63470510    55.15357270
 F     11   9   8     2.553102696347   109.48526260   174.24084407
 H     11   9   8     2.085615051445   111.38591581   294.38033038

------------------------------------------------------------------------------
                   ___                                                        
                  /   \      - P O W E R E D   B Y -                         
                 /     \                                                     
                 |  |  |   _    _      __       _____    __    __             
                 |  |  |  | |  | |    /  \     |  _  \  |  |  /  |          
                  \  \/   | |  | |   /    \    | | | |  |  | /  /          
                 / \  \   | |__| |  /  /\  \   | |_| |  |  |/  /          
                |  |  |   |  __  | /  /__\  \  |    /   |      \           
                |  |  |   | |  | | |   __   |  |    \   |  |\   \          
                \     /   | |  | | |  |  |  |  | |\  \  |  | \   \       
                 \___/    |_|  |_| |__|  |__|  |_| \__\ |__|  \__/        
                                                                              
                      - O R C A' S   B I G   F R I E N D -                    
[...]
     25       0.035991   0.003060   0.035437   0.093990  -0.022978  -0.008594
     26      -0.405271   0.043553  -0.027250  -0.110367   0.018133  -0.011310
     27      -0.133135   0.002293  -0.005713  -0.003753   0.010484   0.002071
     28       0.009768  -0.000254  -0.001900  -0.007208   0.000355   0.000359
     29       0.109352  -0.003655   0.004984   0.013311  -0.007387  -0.000284
     30       0.016401  -0.001555  -0.070694   0.093362   0.005638   0.006730
     31      -0.042118  -0.015177  -0.124057  -0.135042   0.028158   0.004538
     32       0.079725   0.006224  -0.021107   0.171520  -0.018198   0.008400
     33      -0.017965  -0.000484  -0.000915   0.005199   0.002509   0.000993
     34      -0.012882   0.003096  -0.001339  -0.018733   0.008454   0.003112
     35       0.022407  -0.000848  -0.000660   0.001674   0.002738   0.001273
     36      -0.006940   0.001531   0.020250  -0.002001  -0.002106  -0.001132
     37       0.035213   0.001111   0.008945   0.023818  -0.004424  -0.000681
     38       0.014181  -0.002139  -0.012076  -0.012396   0.001811  -0.000625
     39      -0.038499   0.001898  -0.009982  -0.008732   0.000559   0.001582
     40       0.001843   0.001589   0.013271   0.005388  -0.002538  -0.000913
     41      -0.013175  -0.003139   0.012620  -0.029391   0.003829  -0.000867
     42       0.141317  -0.045796   0.559589  -0.512366   0.021259  -0.053820
     43      -0.642541   0.107574   0.744842   0.438772  -0.089737  -0.016348
     44       0.437597  -0.087726   0.313096  -0.659093   0.036797  -0.045469
                 42         43         44    
      0       0.001900   0.000118   0.000192
      1       0.000395   0.000022   0.002631
      2       0.000637  -0.000066   0.000031
      3      -0.000024   0.000006   0.000017
      4      -0.000244  -0.000074  -0.000504
      5       0.000293   0.000104   0.000229
      6      -0.000491  -0.000068  -0.000004
      7      -0.000008   0.000006  -0.000292
      8       0.000123   0.000028  -0.000024
      9      -0.000009   0.000022  -0.000183
     10       0.000017   0.000054  -0.000493
     11       0.000209   0.000107  -0.000444
     12       0.018533   0.003284   0.010414
     13       0.016606   0.001069   0.094340
     14      -0.062336  -0.009752   0.016089
     15      -0.027649  -0.005388   0.034769
     16       0.469418   0.082999  -0.656477
     17       0.329223   0.057648  -0.478787
     18      -0.228636  -0.032919  -0.159322
     19      -0.657885  -0.095161  -0.466697
     20       0.398205   0.057105   0.293081
     21       0.002305  -0.000082  -0.000067
     22      -0.000573   0.000109  -0.000454
     23       0.000473  -0.000383  -0.000244
     24      -0.001624   0.000856  -0.000049
     25      -0.000361  -0.001954   0.000197
     26      -0.001576   0.000386   0.000520
     27       0.000263  -0.000462  -0.000051
     28       0.000008  -0.000061   0.000014
     29      -0.000027   0.000522  -0.000021
     30      -0.008544   0.058338   0.001019
     31       0.003217  -0.019677  -0.000110
     32       0.008551  -0.057719  -0.000825
     33      -0.000046  -0.000176   0.000221
     34       0.000227   0.000659  -0.000222
     35       0.000228   0.000169  -0.000156
     36       0.000061  -0.000817  -0.000056
     37       0.000082  -0.000657  -0.000090
     38       0.000044   0.000040  -0.000023
     39      -0.000111   0.000491  -0.000007
     40      -0.000122   0.000462  -0.000020
     41      -0.000001   0.000716   0.000005
     42       0.104118  -0.687384  -0.011149
     43      -0.038337   0.247834   0.004146
     44      -0.099251   0.659700   0.009329


-----------
IR SPECTRUM
-----------

 Mode   freq       eps      Int      T**2         TX        TY        TZ
       cm**-1   L/(mol*cm) km/mol    a.u.
----------------------------------------------------------------------------
  6:     30.00   0.000119    0.60  0.001240  (-0.023293 -0.025351 -0.007380)
  7:     35.24   0.000028    0.14  0.000244  (-0.006481  0.014177 -0.001202)
  8:     64.68   0.000120    0.61  0.000580  (-0.015989  0.003268 -0.017722)
  9:     90.00   0.000457    2.31  0.001583  ( 0.011366 -0.034383 -0.016487)
 10:    150.78   0.000418    2.11  0.000865  ( 0.015012  0.015139 -0.020270)
 11:    182.51   0.000752    3.80  0.001286  (-0.021898 -0.028377  0.000893)
 12:    239.74   0.000634    3.21  0.000826  ( 0.002296  0.017356  0.022784)
 13:    261.58   0.000458    2.32  0.000547  ( 0.019096  0.007875 -0.010958)
 14:    329.67   0.000026    0.13  0.000024  (-0.003994 -0.002853 -0.000510)
 15:    364.20   0.000302    1.53  0.000259  ( 0.002252  0.015247 -0.004606)
 16:    381.70   0.000038    0.19  0.000031  (-0.004838 -0.002431  0.001443)
 17:    424.10   0.000580    2.93  0.000427  ( 0.019730  0.004838 -0.003791)
 18:    520.19   0.000090    0.46  0.000054  ( 0.002204  0.001608 -0.006835)
 19:    541.20   0.000346    1.75  0.000200  ( 0.005596  0.012749  0.002384)
 20:    566.90   0.002160   10.92  0.001189  (-0.023480  0.021828 -0.012696)
 21:    589.69   0.000988    4.99  0.000523  ( 0.010602  0.014488 -0.014161)
 22:    602.79   0.003804   19.22  0.001969  (-0.031515  0.006887 -0.030475)
 23:    667.59   0.007580   38.31  0.003543  ( 0.024331 -0.014779  0.052279)
 24:    746.99   0.001847    9.33  0.000772  (-0.004299  0.006151 -0.026744)
 25:    864.77   0.006448   32.58  0.002327  ( 0.032879  0.009561 -0.033976)
 26:    873.33   0.005722   28.92  0.002045  (-0.007931 -0.014485  0.042096)
 27:    990.59   0.006666   33.69  0.002100  ( 0.001054 -0.045776  0.001823)
 28:   1118.14   0.007635   38.58  0.002131  (-0.002011 -0.038955  0.024683)
 29:   1141.13   0.039092  197.55  0.010690  (-0.015838  0.100498  0.018429)
 30:   1160.51   0.008873   44.84  0.002386  (-0.020641  0.042770 -0.011434)
 31:   1186.29   0.033253  168.05  0.008747  ( 0.053046  0.048127  0.060144)
 32:   1207.67   0.059582  301.10  0.015396  ( 0.094300  0.075479  0.028403)
 33:   1214.47   0.050352  254.46  0.012938  (-0.101229  0.032094  0.040752)
 34:   1247.78   0.095455  482.39  0.023873  (-0.130552  0.026362 -0.078319)
 35:   1321.75   0.028382  143.43  0.006701  (-0.040288  0.015551  0.069541)
 36:   1326.59   0.026297  132.89  0.006186  ( 0.059448  0.002596 -0.051431)
 37:   1334.19   0.029515  149.16  0.006903  ( 0.026157  0.078587 -0.006583)
 38:   1395.20   0.004735   23.93  0.001059  (-0.017244 -0.022111 -0.016521)
 39:   1442.86   0.000762    3.85  0.000165  (-0.012347 -0.002358 -0.002628)
 40:   1456.60   0.006566   33.18  0.001407  (-0.029663  0.007015 -0.021855)
 41:   1477.72   0.001340    6.77  0.000283  ( 0.006840 -0.002462  0.015172)
 42:   3044.18   0.001934    9.78  0.000198  ( 0.012029  0.005547 -0.004777)
 43:   3068.04   0.007283   36.80  0.000741  ( 0.022608 -0.010124 -0.011276)
 44:   3116.57   0.000934    4.72  0.000094  (-0.000245  0.009625 -0.000909)

* The epsilon (eps) is given for a Dirac delta lineshape.
** The dipole moment derivative (T) already includes vibrational overlap.

The first frequency considered to be a vibration is 6
The total number of vibrations considered is 39


--------------------------
THERMOCHEMISTRY AT 298.15K
--------------------------

Temperature         ...   298.15 K
Pressure            ...     1.00 atm
Total Mass          ...   200.05 AMU
Quasi RRHO          ...     True
Cut-Off Frequency   ...     1.00 cm^-1

Throughout the following assumptions are being made:
  (1) The electronic state is orbitally nondegenerate
  (2) There are no thermally accessible electronically excited states
  (3) Hindered rotations indicated by low frequency modes are not
      treated as such but are treated as vibrations and this may
      cause some error
  (4) All equations used are the standard statistical mechanics
      equations for an ideal gas
  (5) All vibrations are strictly harmonic

freq.      30.00  E(vib)   ...       0.55 
freq.      35.24  E(vib)   ...       0.54 
freq.      64.68  E(vib)   ...       0.50 
freq.      90.00  E(vib)   ...       0.47 
freq.     150.78  E(vib)   ...       0.40 
freq.     182.51  E(vib)   ...       0.37 
freq.     239.74  E(vib)   ...       0.31 
freq.     261.58  E(vib)   ...       0.30 
freq.     329.67  E(vib)   ...       0.24 
freq.     364.20  E(vib)   ...       0.22 
freq.     381.70  E(vib)   ...       0.21 
freq.     424.10  E(vib)   ...       0.18 
freq.     520.19  E(vib)   ...       0.13 
freq.     541.20  E(vib)   ...       0.12 
freq.     566.90  E(vib)   ...       0.11 
freq.     589.69  E(vib)   ...       0.10 
freq.     602.79  E(vib)   ...       0.10 
freq.     667.59  E(vib)   ...       0.08 
freq.     746.99  E(vib)   ...       0.06 
freq.     864.77  E(vib)   ...       0.04 
freq.     873.33  E(vib)   ...       0.04 
freq.     990.59  E(vib)   ...       0.02 
freq.    1118.14  E(vib)   ...       0.01 
freq.    1141.13  E(vib)   ...       0.01 
freq.    1160.51  E(vib)   ...       0.01 
freq.    1186.29  E(vib)   ...       0.01 
freq.    1207.67  E(vib)   ...       0.01 
freq.    1214.47  E(vib)   ...       0.01 
freq.    1247.78  E(vib)   ...       0.01 
freq.    1321.75  E(vib)   ...       0.01 
freq.    1326.59  E(vib)   ...       0.01 
freq.    1334.19  E(vib)   ...       0.01 
freq.    1395.20  E(vib)   ...       0.00 
freq.    1442.86  E(vib)   ...       0.00 
freq.    1456.60  E(vib)   ...       0.00 
freq.    1477.72  E(vib)   ...       0.00 
freq.    3044.18  E(vib)   ...       0.00 
freq.    3068.04  E(vib)   ...       0.00 
freq.    3116.57  E(vib)   ...       0.00 

------------
INNER ENERGY
------------

The inner energy is: U= E(el) + E(ZPE) + E(vib) + E(rot) + E(trans)
    E(el)   - is the total energy from the electronic structure calculation
              = E(kin-el) + E(nuc-el) + E(el-el) + E(nuc-nuc)
    E(ZPE)  - the the zero temperature vibrational energy from the frequency calculation
    E(vib)  - the the finite temperature correction to E(ZPE) due to population
              of excited vibrational states
    E(rot)  - is the rotational thermal energy
    E(trans)- is the translational thermal energy

Summary of contributions to the inner energy U:
Electronic energy                ...   -927.26945834 Eh
Zero point energy                ...      0.08378634 Eh      52.58 kcal/mol
Thermal vibrational correction   ...      0.00832109 Eh       5.22 kcal/mol
Thermal rotational correction    ...      0.00141627 Eh       0.89 kcal/mol
Thermal translational correction ...      0.00141627 Eh       0.89 kcal/mol
-----------------------------------------------------------------------
Total thermal energy                   -927.17451837 Eh


Summary of corrections to the electronic energy:
(perhaps to be used in another calculation)
Total thermal correction                  0.01115363 Eh       7.00 kcal/mol
Non-thermal (ZPE) correction              0.08378634 Eh      52.58 kcal/mol
-----------------------------------------------------------------------
Total correction                          0.09493997 Eh      59.58 kcal/mol


--------
ENTHALPY
--------

The enthalpy is H = U + kB*T
                kB is Boltzmann's constant
Total thermal energy              ...   -927.17451837 Eh 
Thermal Enthalpy correction       ...      0.00094421 Eh       0.59 kcal/mol
-----------------------------------------------------------------------
Total Enthalpy                    ...   -927.17357416 Eh


Note: Only C1 symmetry has been detected, increase convergence thresholds 
      if your molecule has a higher symmetry. Symmetry factor of 1.0 is   
      used for the rotational entropy correction. 
 

Note: Rotational entropy computed according to Herzberg 
Infrared and Raman Spectra, Chapter V,1, Van Nostrand Reinhold, 1945 
Point Group:  C1, Symmetry Number:   1  
Rotational constants in cm-1:     0.059990     0.015641     0.014653 

Vibrational entropy computed according to the QRRHO of S. Grimme
Chem.Eur.J. 2012 18 9955 using a reference frequency of 100.0 cm-1


-------
ENTROPY
-------

The entropy contributions are T*S = T*(S(el)+S(vib)+S(rot)+S(trans))
     S(el)   - electronic entropy
     S(vib)  - vibrational entropy
     S(rot)  - rotational entropy
     S(trans)- translational entropy
The entropies will be listed as multiplied by the temperature to get
units of energy

Electronic entropy                ...      0.00000000 Eh      0.00 kcal/mol
Vibrational entropy               ...      0.01491961 Eh      9.36 kcal/mol
Rotational entropy                ...      0.01479565 Eh      9.28 kcal/mol
Translational entropy             ...      0.01985330 Eh     12.46 kcal/mol
-----------------------------------------------------------------------
Final entropy term                ...      0.04956856 Eh     31.10 kcal/mol

In case the symmetry of your molecule has not been determined correctly
or in case you have a reason to use a different symmetry number we print 
out the resulting rotational entropy values for sn=1,12:

 non-linear molecules -----------------------------------
|  sn= 1 | S(rot)=       0.01479565 Eh      9.28 kcal/mol|
|  sn= 2 | S(rot)=       0.01414120 Eh      8.87 kcal/mol|
|  sn= 3 | S(rot)=       0.01375837 Eh      8.63 kcal/mol|
|  sn= 4 | S(rot)=       0.01348674 Eh      8.46 kcal/mol|
|  sn= 5 | S(rot)=       0.01327605 Eh      8.33 kcal/mol|
|  sn= 6 | S(rot)=       0.01310391 Eh      8.22 kcal/mol|
|  sn= 7 | S(rot)=       0.01295836 Eh      8.13 kcal/mol|
|  sn= 8 | S(rot)=       0.01283229 Eh      8.05 kcal/mol|
|  sn= 9 | S(rot)=       0.01272108 Eh      7.98 kcal/mol|
|  sn=10 | S(rot)=       0.01262160 Eh      7.92 kcal/mol|
|  sn=11 | S(rot)=       0.01253161 Eh      7.86 kcal/mol|
|  sn=12 | S(rot)=       0.01244945 Eh      7.81 kcal/mol|
 linear molecules ---------------------------------------
|  Dinfh | S(rot)=       0.00931318 Eh      5.84 kcal/mol|
|  Cinfv | S(rot)=       0.00996764 Eh      6.25 kcal/mol|
 --------------------------------------------------------


-------------------
GIBBS FREE ENERGY
-------------------

The Gibbs free energy is G = H - T*S

Total enthalpy                    ...   -927.17357416 Eh 
Total entropy correction          ...     -0.04956856 Eh    -31.10 kcal/mol
-----------------------------------------------------------------------
Final Gibbs free energy         ...   -927.22314272 Eh

For completeness - the Gibbs free energy minus the electronic energy
G-E(el)                           ...      0.04631561 Eh     29.06 kcal/mol


Maximum memory used throughout the entire PROP-calculation: 55.2 MB

--------------------------------
SUGGESTED CITATIONS FOR THIS RUN
--------------------------------

Below you find a list of papers that are relevant to this ORCA run
We neither can nor want to force you to cite these papers, but we appreciate if you do
You receive ORCA, which is the product of decades of hard work by many enthusiastic individuals, for free
The only thing we kindly ask in return is that you cite our papers,
We deeply appreciate it, if you show your appreciation for ORCA by not just citing the generic ORCA reference.

Please note that relegating all ORCA citations to the supporting information does *not* help us.
SI sections are not indexed - citations you put there will not count into any citation statistics
But we need these citations in order to attract the funding resources that allow us to do what we are doing

Therefore, if you are a happy ORCA user, please consider citing a few of the papers listed below in the main body of your paper

In addition to the list printed below, the program has created the file TFTFE_C2.bibtex that contains the list in bibtex format
You can import this file easily into all common literature databanks and citation aid programs


List of essential papers. We consider these as the minimum necessary citations

  1. Neese, F.
     Software update: the ORCA program system, version 6.0
     WIRES Comput. Molec. Sci. 2025 15(1), e70019
     doi.org/10.1002/wcms.7019

List of papers to cite with high priority. The work reported in these papers was absolutely
necessary for this run to complete.
Our perspective: the developers of density functionals and basis sets usually get cited in chemistry papers
Good! But without the algorithms to do something with them, the functionals or basis sets would not do anything.
Hence, in our opinion, the algorithm design and method developments papers are equally worthy of getting cited

  1. Neese, F.
     An improvement of the resolution of the identity approximation for the formation of the Coulomb matrix
     J. Comp. Chem. 2003 24(14), 1740-1747
     doi.org/10.1002/jcc.10318
  2. Neese, F.; Wennmohs, F.; Hansen, A.; Becker, U.
     Efficient, approximate and parallel Hartree-Fock and hybrid DFT calculations. A 'chain-of-spheres' algorithm for the Hartree-Fock exchange
     Chem. Phys. 2009 356(1-3), 98-109
     doi.org/10.1016/j.chemphys.2008.10.036
  3. Bykov, D.; Petrenko, T.; Izsak, R.; Kossmann, S.; Becker, U.; Valeev, E.; Neese, F.
     Efficient implementation of the analytic second derivatives of Hartree-Fock and hybrid DFT energies: a detailed analysis of different approximations
     Molec. Phys. 2015 113 , 1961-1977
     doi.org/10.1080/00268976.2015.1025114
  4. Helmich-Paris, B.; de Souza, B.; Neese, F.; Izsák, R.
     An improved chain of spheres for exchange algorithm
     J. Chem. Phys. 2021 155(10), 104109
     doi.org/10.1063/5.0058766
  5. Neese, F.
     The SHARK Integral Generation and Digestion System
     J. Comp. Chem. 2022 44(3), 381
     doi.org/10.1002/jcc.26942

List of suggested additional citations. These are papers that are important in the 'surrounding' of 
of this run, or papers that preceded the highly important papers. If you like your results we are grateful for a citation.

  1. Izsak, R.; Neese, F.
     An overlap fitted chain of spheres exchange method
     J. Chem. Phys. 2011 135 , 144105
     doi.org/10.1063/1.3646921
  2. Izsak, R.; Hansen, A.; Neese, F.
     The resolution of identity and chain of spheres approximations for the LPNO-CCSD singles Fock term
     Molec. Phys. 2012 110 , 2413-2417
     doi.org/10.1080/00268976.2012.687466
  3. Neese, F.
     The ORCA program system
     WIRES Comput. Molec. Sci. 2012 2(1), 73-78
     doi.org/10.1002/wcms.81
  4. Izsak, R.; Neese, F.; Klopper, W.
     Robust fitting techniques in the chain of spheres approximation to the Fock exchange: The role of the complementary space
     J. Chem. Phys. 2013 139 , 
     doi.org/10.1063/1.4819264
  5. Neese, F.
     Software update: the ORCA program system, version 4.0
     WIRES Comput. Molec. Sci. 2018 8(1), 1-6
     doi.org/10.1002/wcms.1327
  6. Neese, F.; Wennmohs, F.; Becker, U.; Riplinger, C.
     The ORCA quantum chemistry program package
     J. Chem. Phys. 2020 152(22), 224108
     doi.org/10.1063/5.0004608
  7. Neese, F.
     Software update: The ORCA program system—Version 5.0
     WIRES Comput. Molec. Sci. 2022 12(1), e1606
     doi.org/10.1002/wcms.1606

List of optional additional citations

  1. Neese, F.
     Approximate second-order SCF convergence for spin unrestricted wavefunctions
     Chem. Phys. Lett. 2000 325(1-3), 93-98
     doi.org/10.1016/s0009-2614(00)00662-x

Timings for individual modules:

Sum of individual times          ...      858.818 sec (=  14.314 min)
Startup calculation              ...       14.247 sec (=   0.237 min)   1.7 %
SCF iterations                   ...      285.035 sec (=   4.751 min)  33.2 %
Property integrals               ...       70.778 sec (=   1.180 min)   8.2 %
SCF Response                     ...       48.663 sec (=   0.811 min)   5.7 %
Property calculations            ...      205.690 sec (=   3.428 min)  24.0 %
SCF Gradient evaluation          ...      234.365 sec (=   3.906 min)  27.3 %
Geometry relaxation              ...        0.041 sec (=   0.001 min)   0.0 %
                             ****ORCA TERMINATED NORMALLY****
TOTAL RUN TIME: 0 days 0 hours 14 minutes 19 seconds 513 msec
