
                                 *****************
                                 * O   R   C   A *
                                 *****************

                                            #,                                       
                                            ###                                      
                                            ####                                     
                                            #####                                    
                                            ######                                   
                                           ########,                                 
                                     ,,################,,,,,                         
                               ,,#################################,,                 
                          ,,##########################################,,             
                       ,#########################################, ''#####,          
                    ,#############################################,,   '####,        
                  ,##################################################,,,,####,       
                ,###########''''           ''''###############################       
              ,#####''   ,,,,##########,,,,          '''####'''          '####       
            ,##' ,,,,###########################,,,                        '##       
           ' ,,###''''                  '''############,,,                           
         ,,##''                                '''############,,,,        ,,,,,,###''
      ,#''                                            '''#######################'''  
     '                                                          ''''####''''         
             ,#######,   #######,   ,#######,      ##                                
            ,#'     '#,  ##    ##  ,#'     '#,    #''#        ,####,    ,#,          
            ##       ##  ##   ,#'  ##            #'  '#       #'       ,# #          
            ##       ##  #######   ##           ,######,      #####,      #          
            '#,     ,#'  ##    ##  '#,     ,#' ,#      #,     #,   #      #          
             '#######'   ##     ##  '#######'  #'      '#     '####' #    #          



                #########################################################
                #                        -***-                          #
                #          Department of theory and spectroscopy        #
                #                                                       #
                #                      Frank Neese                      #
                #                                                       #
                #     Directorship, Architecture, Infrastructure        #
                #                    SHARK, DRIVERS                     #
                #        Core code/Algorithms in most modules           #
                #                                                       #
                #        Max Planck Institute fuer Kohlenforschung      #
                #                Kaiser Wilhelm Platz 1                 #
                #                 D-45470 Muelheim/Ruhr                 #
                #                      Germany                          #
                #                                                       #
                #                  All rights reserved                  #
                #                        -***-                          #
                #########################################################


                         Program Version 6.1.0  -  RELEASE   -
                                (GIT: $679e74b$)
                          ($2025-06-10 18:02:51 +0200$)


 With contributions from (in alphabetic order):
[Max-Planck-Institut fuer Kohlenforschung]                               
  Daniel Aravena         : Magnetic Suceptibility                        
  Michael Atanasov       : Ab Initio Ligand Field Theory (pilot matlab implementation)
  Alexander A. Auer      : GIAO ZORA, VPT2 properties, NMR spectrum      
  Ute Becker             : All parallelization in ORCA, NUMFREQ, NUMCALC 
  Giovanni Bistoni       : ED, misc. LED, open-shell LED, HFLD           
  Dmytro Bykov           : pre 5.0 version of the SCF Hessian            
  Marcos Casanova-Páez   : Triplet and SCS-CIS(D). UHF-(DLPNO)-IP/EA/STEOM-CCSD. UHF-CVS-IP/STEOM-CCSD   
  Vijay G. Chilkuri      : MRCI spin determinant printing, contributions to CSF-ICE 
  Pauline Colinet        : FMM embedding                                 
  Dipayan Datta          : RHF DLPNO-CCSD density                        
  Achintya Kumar Dutta   : EOM-CC, STEOM-CC                              
  Nicolas Foglia         : Exact transition moments, OPA infrastructure, MCD improvements    
  Dmitry Ganyushin       : Spin-Orbit,Spin-Spin,Magnetic field MRCI      
  Miquel Garcia-Rates    : C-PCM and meta-GGA Hessian, CCSD/C-PCM, Gaussian charge scheme 
  Tiago L. C. Gouveia    : GS-ROHF, GS-ROCIS                             
  Yang Guo               : DLPNO-NEVPT2, F12-NEVPT2, CIM, IAO-localization        
  Andreas Hansen         : Spin unrestricted coupled pair/coupled cluster methods 
  Ingolf Harden          : AUTO-CI MPn and infrastructure                
  Benjamin Helmich-Paris : MC-RPA, TRAH-(SCF,CASSCF), AVAS, COSX integrals, SCF dyn. polar., MC-PDFT, srDFT 
  Lee Huntington         : MR-EOM, pCC                                   
  Robert Izsak           : Overlap fitted RIJCOSX, COSX-SCS-MP3, EOM     
  Riya Kayal             : Wick's Theorem for AUTO-CI, AUTO-CI UHF-CCSDT 
  Emily Kempfer          : AUTO-CI RHF CISDT and CCSDT, approximate NEVPT4
  Christian Kollmar      : KDIIS, OOCD, Brueckner-CCSD(T), CCSD density, CASPT2, CASPT2-K, improved NEVPT2 
  Axel Koslowski         : Symmetry handling                             
  Simone Kossmann        : meta-GGA functionals, TD-DFT gradient, OOMP2, (MP2 Hessian; deprecated post 5.0) 
  Lucas Lang             : DCDCAS, Hyperfine gauge corrections, ICE-SOC+SSC
  Marvin Lechner         : AUTO-CI (C++ implementation), FIC-MRCC        
  Spencer Leger          : CASSCF response                               
  Dagmar Lenk            : GEPOL surface, SMD, ORCA-2-JSON               
  Dimitrios Liakos       : Extrapolation schemes; Compound Job, Property file
  Dimitrios Manganas     : Further ROCIS development; embedding schemes. LFT, Crystal Embedding 
  Dimitrios Pantazis     : SARC Basis sets                               
  Anastasios Papadopoulos: AUTO-CI, single reference methods and gradients 
  Taras Petrenko         : pre 6.0 DFT Hessian and TD-DFT gradient,  ECA, NRVS 
  Petra Pikulova         : Analytic Raman intensities                    
  Peter Pinski           : DLPNO-MP2, DLPNO-MP2 Gradient                 
  Shashank Vittal Rao    : ES-AILFT, MagRelax                            
  Christoph Reimann      : Effective Core Potentials                     
  Marius Retegan         : Local ZFS, SOC                                
  Christoph Riplinger    : Optimizer, TS searches, QM/MM, DLPNO-CCSD(T), (RO)-DLPNO pert. Triples 
  Michael Roemelt        : Original ROCIS implementation, recursive CI coupling coefficients
  Masaaki Saitow         : Open-shell DLPNO-CCSD energy and density      
  Barbara Sandhoefer     : DKH picture change effects                    
  Yorick L. A. Schmerwitz: GMF and freeze-and-release deltaSCF, NEB S-IDPP initial path                    
  Kantharuban Sivalingam : CASSCF convergence/infrastructure, NEVPT2, NEVPT3, NEVPT4(SD), FIC-MRCI and CEPA variants
  Bernardo de Souza      : ESD, SOC TD-DFT                               
  Georgi L. Stoychev     : AutoAux, RI-MP2 NMR, DLPNO-MP2 response, X2C  
  Van Anh Tran           : RI-MP2 g-tensors                              
  Willem Van den Heuvel  : Paramagnetic NMR                              
  Zikuan Wang            : NOTCH, Electric field optimization            
  Frank Wennmohs         : Technical directorship and infrastructure     
  Hang Xu                : AUTO-CI-Response properties                   
                                                                         
[FACCTs GmbH]                                                            
  Markus Bursch, Nicolas Foglia, Miquel Garcia-Rates, Ingolf Harden, Hagen Neugebauer, Anastasios Papadopoulos, 
  Christoph Riplinger, Bernardo de Souza, Georgi L. Stoychev                                                    
                                                                 
  APM, various basis sets, CI-OPT, improved COSX, DLPNO-Multilevel,           
  DOCKER, DRACO, updates on ESD, Fragmentator, GOAT, IRC, LR-CPCM, L-BFGS, MBIS, meta-GGA TD-DFT gradient, ML-optimized integration grids, 
  MM, NACMEs, nearIR, NEB, NEB-TS, NL-DFT gradient (VV10), 2- and 3-layer-ONIOM, interface openCOSMO-RS, QMMM,   
  Crystal-QMMM, RESP, rigid body optimization, SF, symmetry and pop. for TD-DFT, various functionals, SOLVATOR                                   
                                                                         
[Other institutions]                                                     
  V. Asgeirsson          : NEB                                           
  Christoph Bannwarth    : sTDA-DFT, sTD-DFT, PBEh-3c, B97-3c, D3        
  Giovanni Bistoni       : ETS/NOCV, ADLD/ADEX, COVALED                  
  Martin Brehm           : Molecular dynamics                            
  Ronald Cardenas        : ETS/NOCV                                      
  Martina Colucci        : COVALED                                       
  Sebastian Ehlert       : rSCAN, r2SCAN, r2SCAN-3c, D4, dhf basis sets  
  Marvin Friede          : D4 for Fr, Ra, Ac-Lr                          
  Lars Goerigk           : TD-DFT with DH, B97 family of functionals     
  Stefan Grimme          : VdW corrections, initial TS optimization, DFT functionals, gCP, sTDA/sTD-DF 
  Waldemar Hujo          : DFT-NL                                        
  H. Jonsson             : NEB                                           
  Holger Kruse           : gCP                                           
  Marcel Mueller         : wB97X-3c, vDZP basis set                      
  Hagen Neugebauer       : wr2SCAN, Native XTB                           
  Gianluca Regni         : ADLD/ADEX                                     
  Tobias Risthaus        : pre 6.0 range-separated hybrid DFT and stability analysis
  Lukas Wittmann         : regularized MP2, r2SCAN double-hybrids, wr2SCAN        
                                                                         
We gratefully acknowledge several colleagues who have allowed us to      
interface, adapt or use parts of their codes:                            
  Ed Valeev, F. Pavosevic, A. Kumar             : LibInt (2-el integral package), F12 methods 
  Garnet Chan, S. Sharma, J. Yang, R. Olivares  : DMRG                   
  Ulf Ekstrom                                   : XCFun DFT Library      
  Mihaly Kallay                                 : mrcc  (arbitrary order and MRCC methods)
  Frank Weinhold                                : gennbo (NPA and NBO analysis)           
  Simon Mueller                                 : openCOSMO-RS                            
  Christopher J. Cramer and Donald G. Truhlar   : smd solvation model                     
  S Lehtola, MJT Oliveira, MAL Marques          : LibXC Library                           
  Liviu Ungur et al                             : ANISO software                          


 Your calculation uses the libint2 library for the computation of 2-el integrals
 For citations please refer to: http://libint.valeyev.net

 Your ORCA version has been built with support for libXC version: 7.0.0
 For citations please refer to: https://libxc.gitlab.io

 This ORCA versions uses:
   CBLAS   interface :  Fast vector & matrix operations
   LAPACKE interface :  Fast linear algebra routines
   SCALAPACK package :  Parallel linear algebra routines
   Shared memory     :  Shared parallel matrices
   BLAS/LAPACK       :  OpenBLAS 0.3.29  USE64BITINT DYNAMIC_ARCH NO_AFFINITY Haswell SINGLE_THREADED
        Core in use  :  Haswell
   Copyright (c) 2011-2014, The OpenBLAS Project


  ***********************************
  * Starting time: Tue Nov 18 12:26:37 2025
  * Host name:     BOOK-611GI2U5BQ
  * Process ID:    2299
  * Working dir.:  /home/a_limbo/IR_lab
  ***********************************

Warning: RI is on but no J-basis has been assigned. Assigning Def2/J (nothing to worry about!)
================================================================================

----- Orbital basis set information -----
Your calculation utilizes the basis: def2-SVP
   F. Weigend and R. Ahlrichs, Phys. Chem. Chem. Phys. 7, 3297 (2005).

----- AuxJ basis set information -----
Your calculation utilizes the auxiliary basis: def2/J
   H-Rn: F. Weigend, Phys. Chem. Chem. Phys. 8, 1057 (2006).
   Fr-Lr: K. Eichkorn, F. Weigend, O. Treutler, R. Ahlrichs; Theor. Chem. Acc. 97, 119 (1997).

================================================================================
                                        WARNINGS
                       Please study these warnings very carefully!
================================================================================

WARNING: Old DensityContainer found on disk!
         Will remove this file - 
         If you want to keep old densities, please start your calculation with a different basename. 


WARNING: Geometry Optimization
  ===> : Switching off AutoStart
         For restart on a previous wavefunction, please use MOREAD

================================================================================
                                       INPUT FILE
================================================================================
NAME = TFTFE_C1.inp
|  1> # avogadro generated ORCA input file 
|  2> # Basic Mode
|  3> # 
|  4> ! B3LYP def2-SVP OPT FREQ 
|  5> 
|  6> * xyz 0 1
|  7>    O       -0.31129       -0.60915       -1.31147
|  8>    C       -1.61667       -0.16061       -0.92357
|  9>    C       -1.58265        0.45830        0.46832
| 10>    F       -1.28536       -0.46081        1.41254
| 11>    F       -2.78320        0.99527        0.78281
| 12>    F       -0.66329        1.44642        0.54271
| 13>    H       -2.29321       -1.02210       -0.93115
| 14>    H       -2.01324        0.58462       -1.62138
| 15>    C       -0.10010       -0.50721       -2.71597
| 16>    F       -0.99439       -1.33288       -3.31556
| 17>    F       -0.39950        0.75865       -3.10101
| 18>    C        1.33424       -0.87704       -3.10275
| 19>    F        2.22912       -0.03572       -2.51506
| 20>    F        1.52747       -0.76194       -4.44382
| 21>    H        1.58000       -1.89924       -2.80229
| 22> *
| 23> 
| 24> 
| 25>                          ****END OF INPUT****
================================================================================

                       *****************************
                       * Geometry Optimization Run *
                       *****************************

Geometry optimization settings:
Update method            Update   .... BFGS
Choice of coordinates    CoordSys .... (2022) Redundant Internals
Initial Hessian          InHess   .... Almloef's Model
Max. no of cycles        MaxIter  .... 50

Convergence Tolerances:
Energy Change            TolE     ....  5.0000e-06 Eh
Max. Gradient            TolMAXG  ....  3.0000e-04 Eh/bohr
RMS Gradient             TolRMSG  ....  1.0000e-04 Eh/bohr
Max. Displacement        TolMAXD  ....  4.0000e-03 bohr
RMS Displacement         TolRMSD  ....  2.0000e-03 bohr
Strict Convergence                .... False

------------------------------------------------------------------------------
                        ORCA OPTIMIZATION COORDINATE SETUP
------------------------------------------------------------------------------

The optimization will be done in redundant internal coordinates (2022)
Making redundant internal coordinates   ...  (2022 redundants) done
Evaluating the initial hessian          ...  (Almloef) done
Evaluating the coordinates              ...  done
Calculating the B-matrix                .... done
Calculating the G-matrix                .... done
The number of degrees of freedom        ....   57

    -----------------------------------------------------------------
                    Redundant Internal Coordinates


    -----------------------------------------------------------------
         Definition                    Initial Value    Approx d2E/dq
    -----------------------------------------------------------------
      1. B(C   1,O   0)                  1.4338         0.476494   
      2. B(C   2,C   1)                  1.5237         0.382366   
      3. B(F   3,C   2)                  1.3508         0.600464   
      4. B(F   4,C   2)                  1.3522         0.597318   
      5. B(F   5,C   2)                  1.3517         0.598474   
      6. B(H   6,C   1)                  1.0954         0.353010   
      7. B(H   7,C   1)                  1.0953         0.353220   
      8. B(C   8,O   0)                  1.4239         0.493994   
      9. B(F   9,C   8)                  1.3568         0.587332   
     10. B(F  10,C   8)                  1.3566         0.587886   
     11. B(C  11,C   8)                  1.5309         0.372320   
     12. B(F  12,C  11)                  1.3616         0.577092   
     13. B(F  13,C  11)                  1.3598         0.580965   
     14. B(H  14,C  11)                  1.0934         0.355604   
     15. A(C   1,O   0,C   8)          112.3021         0.392749   
     16. A(O   0,C   1,H   7)          111.7250         0.334523   
     17. A(C   2,C   1,H   6)          109.8504         0.324499   
     18. A(C   2,C   1,H   7)          108.2836         0.324530   
     19. A(H   6,C   1,H   7)          107.8835         0.289058   
     20. A(O   0,C   1,H   6)          108.3248         0.334490   
     21. A(O   0,C   1,C   2)          110.7257         0.378018   
     22. A(F   4,C   2,F   5)          107.5035         0.419160   
     23. A(C   1,C   2,F   4)          110.7279         0.391487   
     24. A(F   3,C   2,F   5)          108.0130         0.419553   
     25. A(C   1,C   2,F   5)          111.2473         0.391620   
     26. A(C   1,C   2,F   3)          111.5356         0.391847   
     27. A(F   3,C   2,F   4)          107.6389         0.419408   
     28. A(O   0,C   8,F  10)          108.3020         0.405762   
     29. A(O   0,C   8,F   9)          107.1307         0.405694   
     30. A(F  10,C   8,C  11)          111.1303         0.388589   
     31. A(F   9,C   8,C  11)          111.0310         0.388525   
     32. A(O   0,C   8,C  11)          111.7686         0.378636   
     33. A(F   9,C   8,F  10)          107.2741         0.416576   
     34. A(F  13,C  11,H  14)          108.5539         0.344745   
     35. A(F  12,C  11,H  14)          108.1386         0.344358   
     36. A(C   8,C  11,H  14)          111.5306         0.323472   
     37. A(F  12,C  11,F  13)          106.2586         0.414401   
     38. A(C   8,C  11,F  13)          111.2142         0.387787   
     39. A(C   8,C  11,F  12)          110.9436         0.387335   
     40. D(C   2,C   1,O   0,C   8)   -148.0643         0.017906   
     41. D(H   7,C   1,O   0,C   8)    -27.2777         0.017906   
     42. D(H   6,C   1,O   0,C   8)     91.4200         0.017906   
     43. D(F   3,C   2,C   1,H   7)    171.2047         0.011645   
     44. D(F   3,C   2,C   1,H   6)     53.6160         0.011645   
     45. D(F   4,C   2,C   1,O   0)    174.1685         0.011645   
     46. D(F   4,C   2,C   1,H   7)     51.3607         0.011645   
     47. D(F   3,C   2,C   1,O   0)    -65.9875         0.011645   
     48. D(F   4,C   2,C   1,H   6)    -66.2280         0.011645   
     49. D(C  11,C   8,O   0,C   1)    175.2056         0.019278   
     50. D(F  10,C   8,O   0,C   1)     52.4581         0.019278   
     51. D(F   9,C   8,O   0,C   1)    -62.9607         0.019278   
     52. D(F  12,C  11,C   8,F  10)     59.8255         0.011073   
     53. D(F  12,C  11,C   8,F   9)    179.1438         0.011073   
     54. D(F  12,C  11,C   8,O   0)    -61.2956         0.011073   
     55. D(F  13,C  11,C   8,F  10)    -58.2175         0.011073   
     56. D(F  13,C  11,C   8,F   9)     61.1008         0.011073   
     57. D(F  13,C  11,C   8,O   0)   -179.3385         0.011073   
    -----------------------------------------------------------------

Number of atoms                         .... 15
Number of degrees of freedom            .... 57


         *************************************************************
         *                GEOMETRY OPTIMIZATION CYCLE   1            *
         *************************************************************
---------------------------------
CARTESIAN COORDINATES (ANGSTROEM)
---------------------------------
  O     -0.311290   -0.609150   -1.311470
  C     -1.616670   -0.160610   -0.923570
  C     -1.582650    0.458300    0.468320
  F     -1.285360   -0.460810    1.412540
  F     -2.783200    0.995270    0.782810
  F     -0.663290    1.446420    0.542710
  H     -2.293210   -1.022100   -0.931150
  H     -2.013240    0.584620   -1.621380
  C     -0.100100   -0.507210   -2.715970
  F     -0.994390   -1.332880   -3.315560
  F     -0.399500    0.758650   -3.101010
  C      1.334240   -0.877040   -3.102750
  F      2.229120   -0.035720   -2.515060
  F      1.527470   -0.761940   -4.443820
  H      1.580000   -1.899240   -2.802290

----------------------------
CARTESIAN COORDINATES (A.U.)
----------------------------
  NO LB      ZA    FRAG     MASS         X           Y           Z
   0 O     8.0000    0    15.999   -0.588253   -1.151127   -2.478319
   1 C     6.0000    0    12.011   -3.055064   -0.303509   -1.745294
   2 C     6.0000    0    12.011   -2.990775    0.866061    0.884997
   3 F     9.0000    0    18.998   -2.428978   -0.870805    2.669314
   4 F     9.0000    0    18.998   -5.259486    1.880788    1.479297
   5 F     9.0000    0    18.998   -1.253436    2.733338    1.025573
   6 H     1.0000    0     1.008   -4.333539   -1.931489   -1.759618
   7 H     1.0000    0     1.008   -3.804472    1.104772   -3.063964
   8 C     6.0000    0    12.011   -0.189162   -0.958488   -5.132439
   9 F     9.0000    0    18.998   -1.879125   -2.518778   -6.265500
  10 F     9.0000    0    18.998   -0.754946    1.433641   -5.860060
  11 C     6.0000    0    12.011    2.521348   -1.657365   -5.863348
  12 F     9.0000    0    18.998    4.212426   -0.067501   -4.752775
  13 F     9.0000    0    18.998    2.886500   -1.439858   -8.397603
  14 H     1.0000    0     1.008    2.985767   -3.589043   -5.295561

--------------------------------
INTERNAL COORDINATES (ANGSTROEM)
--------------------------------
 O      0   0   0     0.000000000000     0.00000000     0.00000000
 C      1   0   0     1.433761307192     0.00000000     0.00000000
 C      2   1   0     1.523668179296   110.72574513     0.00000000
 F      3   2   1     1.350813067971   111.53555887   294.01251389
 F      3   2   1     1.352242967628   110.72794836   174.16851898
 F      3   2   1     1.351716618267   111.24734447    54.68486949
 H      2   1   3     1.095412638278   108.32477424   239.48422960
 H      2   1   3     1.095250799543   111.72496752   120.78656304
 C      1   2   3     1.423942846360   112.30209621   211.93573830
 F      9   1   2     1.356832237640   107.13069388   297.03926389
 F      9   1   2     1.356575726305   108.30203807    52.45810575
 C      9   1   2     1.530916141694   111.76863254   175.20559202
 F     12   9   1     1.361620025154   110.94356288   298.70440314
 F     12   9   1     1.359799466024   111.21420573   180.66148382
 H     12   9   1     1.093419877815   111.53063991    59.32447593

---------------------------
INTERNAL COORDINATES (A.U.)
---------------------------
 O      0   0   0     0.000000000000     0.00000000     0.00000000
 C      1   0   0     2.709416212005     0.00000000     0.00000000
 C      2   1   0     2.879315577840   110.72574513     0.00000000
 F      3   2   1     2.552666756586   111.53555887   294.01251389
 F      3   2   1     2.555368875338   110.72794836   174.16851898
 F      3   2   1     2.554374219195   111.24734447    54.68486949
 H      2   1   3     2.070029889982   108.32477424   239.48422960
 H      2   1   3     2.069724059095   111.72496752   120.78656304
 C      1   2   3     2.690862009977   112.30209621   211.93573830
 F      9   1   2     2.564041338816   107.13069388   297.03926389
 F      9   1   2     2.563556602642   108.30203807    52.45810575
 C      9   1   2     2.893012241802   111.76863254   175.20559202
 F     12   9   1     2.573088946004   110.94356288   298.70440314
 F     12   9   1     2.569648587838   111.21420573   180.66148382
 H     12   9   1     2.066264118455   111.53063991    59.32447593

---------------------
BASIS SET INFORMATION
---------------------
There are 4 groups of distinct atoms

 Group   1 Type O   : 7s4p1d contracted to 3s2p1d pattern {511/31/1}
 Group   2 Type C   : 7s4p1d contracted to 3s2p1d pattern {511/31/1}
 Group   3 Type F   : 7s4p1d contracted to 3s2p1d pattern {511/31/1}
 Group   4 Type H   : 4s1p contracted to 2s1p pattern {31/1}

Atom   0O    basis set group =>   1
Atom   1C    basis set group =>   2
Atom   2C    basis set group =>   2
Atom   3F    basis set group =>   3
Atom   4F    basis set group =>   3
Atom   5F    basis set group =>   3
Atom   6H    basis set group =>   4
Atom   7H    basis set group =>   4
Atom   8C    basis set group =>   2
Atom   9F    basis set group =>   3
Atom  10F    basis set group =>   3
Atom  11C    basis set group =>   2
Atom  12F    basis set group =>   3
Atom  13F    basis set group =>   3
Atom  14H    basis set group =>   4
---------------------------------
AUXILIARY/J BASIS SET INFORMATION
---------------------------------
There are 4 groups of distinct atoms

 Group   1 Type O   : 12s5p4d2f1g contracted to 6s4p3d1f1g pattern {711111/2111/211/2/1}
 Group   2 Type C   : 12s5p4d2f1g contracted to 6s4p3d1f1g pattern {711111/2111/211/2/1}
 Group   3 Type F   : 12s5p4d2f1g contracted to 6s4p3d1f1g pattern {711111/2111/211/2/1}
 Group   4 Type H   : 5s2p1d contracted to 3s1p1d pattern {311/2/1}

Atom   0O    basis set group =>   1
Atom   1C    basis set group =>   2
Atom   2C    basis set group =>   2
Atom   3F    basis set group =>   3
Atom   4F    basis set group =>   3
Atom   5F    basis set group =>   3
Atom   6H    basis set group =>   4
Atom   7H    basis set group =>   4
Atom   8C    basis set group =>   2
Atom   9F    basis set group =>   3
Atom  10F    basis set group =>   3
Atom  11C    basis set group =>   2
Atom  12F    basis set group =>   3
Atom  13F    basis set group =>   3
Atom  14H    basis set group =>   4
------------------------------------------------------------------------------
                             ORCA STARTUP CALCULATIONS
                           -- RI-GTO INTEGRALS CHOSEN --
------------------------------------------------------------------------------
------------------------------------------------------------------------------
                   ___                                                        
                  /   \      - P O W E R E D   B Y -                         
                 /     \                                                     
                 |  |  |   _    _      __       _____    __    __             
                 |  |  |  | |  | |    /  \     |  _  \  |  |  /  |          
                  \  \/   | |  | |   /    \    | | | |  |  | /  /          
                 / \  \   | |__| |  /  /\  \   | |_| |  |  |/  /          
                |  |  |   |  __  | /  /__\  \  |    /   |      \           
                |  |  |   | |  | | |   __   |  |    \   |  |\   \          
                \     /   | |  | | |  |  |  |  | |\  \  |  | \   \       
                 \___/    |_|  |_| |__|  |__|  |_| \__\ |__|  \__/        
                                                                              
                      - O R C A' S   B I G   F R I E N D -                    
                                      &                                       
                       - I N T E G R A L  F E E D E R -                       
                                                                              
 v1 FN, 2020, v2 2021, v3 2022-2024                                           
------------------------------------------------------------------------------


----------------------
SHARK INTEGRAL PACKAGE
----------------------

Number of atoms                             ...     15
Number of basis functions                   ...    183
Number of shells                            ...     81
Maximum angular momentum                    ...      2
Integral batch strategy                     ... SHARK/LIBINT Hybrid
RI-J (if used) integral strategy            ... SPLIT-RIJ (Revised 2003 algorithm where possible)
Printlevel                                  ...      1
Contraction scheme used                     ... SEGMENTED contraction
Prescreening option                         ... SCHWARTZ
   Thresh                                   ... 2.500e-11
   Tcut                                     ... 2.500e-12
   Tpresel                                  ... 2.500e-12 
Coulomb Range Separation                    ... NOT USED
Exchange Range Separation                   ... NOT USED
Multipole approximations                    ... NOT USED
Finite Nucleus Model                        ... NOT USED
CABS basis                                  ... NOT available
Auxiliary Coulomb fitting basis             ... AVAILABLE
   # of basis functions in Aux-J            ...    621
   # of shells in Aux-J                     ...    195
   Maximum angular momentum in Aux-J        ...      4
Auxiliary J/K fitting basis                 ... NOT available
Auxiliary Correlation fitting basis         ... NOT available
Auxiliary 'external' fitting basis          ... NOT available

Checking pre-screening integrals            ... done (  0.0 sec) Dimension = 81
   => SHARK Basis and OBASIS are compatible. Storing Pre-screening
Shell pair information
Shell pair cut-off parameter TPreSel        ...   2.5e-12
Total number of shell pairs                 ...      3321
Shell pairs after pre-screening             ...      2756
Total number of primitive shell pairs       ...     12885
Primitive shell pairs kept                  ...      7289
          la=0 lb=0:    729 shell pairs
          la=1 lb=0:    973 shell pairs
          la=1 lb=1:    340 shell pairs
          la=2 lb=0:    386 shell pairs
          la=2 lb=1:    269 shell pairs
          la=2 lb=2:     59 shell pairs

Checking whether 4 symmetric matrices of dimension 183 fit in memory
:Max Core in MB      =   4096.00
 MB in use           =      6.95
 MB left             =   4089.05
 MB needed           =      0.51
 Data fit in memory  = YES
Calculating RI/J V-Matrix + Cholesky decomp.... done (  0.0 sec)
Calculating Nuclear repulsion               ... done (  0.0 sec) ENN=    839.220725019868 Eh

Diagonalization of the overlap matrix:
Smallest eigenvalue                        ... 2.926e-03
Time for diagonalization                   ...    0.009 sec
Threshold for overlap eigenvalues          ... 1.000e-07
Number of eigenvalues below threshold      ... 0
Time for construction of square roots      ...    0.001 sec
Total time needed                          ...    0.010 sec

-------------------
DFT GRID GENERATION
-------------------

General Integration Accuracy     IntAcc      ... 4.388
Radial Grid Type                 RadialGrid  ... OptM3 with GC (2021)
Angular Grid (max. ang.)         AngularGrid ... 4 (Lebedev-302)
Angular grid pruning method      GridPruning ... 4 (adaptive)
Weight generation scheme         WeightScheme... mBecke (2022)
Basis function cutoff            BFCut       ... 1.0000e-11
Integration weight cutoff        WCut        ... 1.0000e-14
Partially contracted basis set               ... off
Rotationally invariant grid construction     ... off
Angular grids for H and He will be reduced by one unit

Total number of grid points                  ...    82618
Total number of batches                      ...     1299
Average number of points per batch           ...       63
Average number of grid points per atom       ...     5508

--------------------
COSX GRID GENERATION
--------------------

GRIDX 1
-------
General Integration Accuracy     IntAcc      ... 3.816
Radial Grid Type                 RadialGrid  ... OptM3 with GC (2021)
Angular Grid (max. ang.)         AngularGrid ... 1 (Lebedev-50)
Angular grid pruning method      GridPruning ... 4 (adaptive)
Weight generation scheme         WeightScheme... mBecke (2022)
Basis function cutoff            BFCut       ... 1.0000e-11
Integration weight cutoff        WCut        ... 1.0000e-14
Partially contracted basis set               ... on
Rotationally invariant grid construction     ... off
Angular grids for H and He will be reduced by one unit

Total number of grid points                  ...    10426
Total number of batches                      ...       90
Average number of points per batch           ...      115
Average number of grid points per atom       ...      695
UseSFitting                                  ... on

GRIDX 2
-------
General Integration Accuracy     IntAcc      ... 4.020
Radial Grid Type                 RadialGrid  ... OptM3 with GC (2021)
Angular Grid (max. ang.)         AngularGrid ... 2 (Lebedev-110)
Angular grid pruning method      GridPruning ... 4 (adaptive)
Weight generation scheme         WeightScheme... mBecke (2022)
Basis function cutoff            BFCut       ... 1.0000e-11
Integration weight cutoff        WCut        ... 1.0000e-14
Partially contracted basis set               ... on
Rotationally invariant grid construction     ... off
Angular grids for H and He will be reduced by one unit

Total number of grid points                  ...    24210
Total number of batches                      ...      197
Average number of points per batch           ...      122
Average number of grid points per atom       ...     1614
UseSFitting                                  ... on

GRIDX 3
-------
General Integration Accuracy     IntAcc      ... 4.338
Radial Grid Type                 RadialGrid  ... OptM3 with GC (2021)
Angular Grid (max. ang.)         AngularGrid ... 3 (Lebedev-194)
Angular grid pruning method      GridPruning ... 4 (adaptive)
Weight generation scheme         WeightScheme... mBecke (2022)
Basis function cutoff            BFCut       ... 1.0000e-11
Integration weight cutoff        WCut        ... 1.0000e-14
Partially contracted basis set               ... on
Rotationally invariant grid construction     ... off
Angular grids for H and He will be reduced by one unit

Total number of grid points                  ...    53633
Total number of batches                      ...      425
Average number of points per batch           ...      126
Average number of grid points per atom       ...     3576
UseSFitting                                  ... on
Grids setup in   1.2 sec
Initializing property integral containers    ... done (  0.0 sec)

SHARK setup successfully completed in   1.4 seconds

Maximum memory used throughout the entire STARTUP-calculation: 33.6 MB
-------------------------------------------------------------------------------
                                 ORCA GUESS
                   Start orbitals & Density for SCF / CASSCF
-------------------------------------------------------------------------------

------------
SCF SETTINGS
------------
Hamiltonian:
 Density Functional     Method          .... DFT(GTOs)
 Exchange Functional    Exchange        .... B88
   X-Alpha parameter    XAlpha          ....  0.666667
   Becke's b parameter  XBeta           ....  0.004200
 Correlation Functional Correlation     .... LYP
 LDA part of GGA corr.  LDAOpt          .... VWN-5
 Gradients option       PostSCFGGA      .... off
 Hybrid DFT is turned on
   Fraction HF Exchange ScalHFX         ....  0.200000
   Scaling of DF-GGA-X  ScalDFX         ....  0.720000
   Scaling of DF-GGA-C  ScalDFC         ....  0.810000
   Scaling of DF-LDA-C  ScalLDAC        ....  1.000000
   Perturbative correction              ....  0.000000
   NL short-range parameter             ....  4.800000
 RI-approximation to the Coulomb term is turned on
   Number of AuxJ basis functions       .... 621
   RIJ-COSX (HFX calculated with COS-X)).... on


General Settings:
 Integral files         IntName         .... TFTFE_C1
 Hartree-Fock type      HFTyp           .... RHF
 Total Charge           Charge          ....    0
 Multiplicity           Mult            ....    1
 Number of Electrons    NEL             ....   98
 Basis Dimension        Dim             ....  183
 Nuclear Repulsion      ENuc            ....    839.2207250199 Eh

Convergence Acceleration:
 AO-DIIS                CNVDIIS         .... on
   Start iteration      DIISMaxIt       ....    12
   Startup error        DIISStart       ....  0.200000
   # of expansion vecs  DIISMaxEq       ....     5
   Bias factor          DIISBfac        ....   1.050
   Max. coefficient     DIISMaxC        ....  10.000
 MO-DIIS                CNVKDIIS        .... off
 Trust-Rad. Augm. Hess. CNVTRAH         .... auto
   Auto Start mean grad. ratio tolernc. ....  1.125000
   Auto Start start iteration           ....    50
   Auto Start num. interpolation iter.  ....    10
   Max. Number of Micro iterations      ....    24
   Max. Number of Macro iterations      .... Maxiter - #DIIS iter
   Number of Davidson start vectors     ....     2
   Converg. threshold    (grad. norm)   ....   1.000e-05
   Grad. Scal. Fac. for Micro threshold ....   0.100
   Minimum threshold for Micro iter.    ....   1.000e-02
   NR start threshold (gradient norm)   ....   1.000e-04
   Initial trust radius                 ....   0.400
   Minimum AH scaling param. (alpha)    ....   1.000
   Maximum AH scaling param. (alpha)    .... 1000.000
   Quad. conv. algorithm                .... NR
   White noise on init. David. guess    .... on
   Maximum white noise                  ....   0.010
   Pseudo random numbers                .... off
   Inactive MOs                         .... canonical
   Orbital update algorithm             .... Taylor
   Preconditioner                       .... Diag
   Full preconditioner red. dimension   ....   250
 SOSCF                 CNVSOSCF           .... on
   Start iteration     SOSCFMaxIt         ....   150
   Startup grad/error  SOSCFStart         ....  0.003300
   Hessian update      SOSCFHessUp        .... L-BFGS
   Autom. constraints  SOSCFAutoConstrain .... off
 Level Shifting         CNVShift        .... on
   Level shift para.    LevelShift      ....    0.2500
   Turn off err/grad.   ShiftErr        ....    0.0010
 Zerner damping         CNVZerner       .... off
 Static damping         CNVDamp         .... on
   Fraction old density DampFac         ....    0.7000
   Max. Damping (<1)    DampMax         ....    0.9800
   Min. Damping (>=0)   DampMin         ....    0.0000
   Turn off err/grad.   DampErr         ....    0.1000

SCF Procedure:
 Maximum # iterations   MaxIter         ....   125
 SCF integral mode      SCFMode         .... Direct
   Integral package                     .... SHARK and LIBINT hybrid scheme
 Reset frequency        DirectResetFreq ....    20
 Integral Threshold     Thresh          ....  2.500e-11 Eh
 Primitive CutOff       TCut            ....  2.500e-12 Eh

Convergence Tolerance:
 Convergence Check Mode ConvCheckMode   .... Total+1el-Energy
 Convergence forced     ConvForced      .... 0
 Energy Change          TolE            ....  1.000e-08 Eh
 1-El. energy change                    ....  1.000e-05 Eh
 Orbital Gradient       TolG            ....  1.000e-05
 Orbital Rotation angle TolX            ....  1.000e-05
 DIIS Error             TolErr          ....  5.000e-07

------------------------------
INITIAL GUESS: MODEL POTENTIAL
------------------------------
Loading Hartree-Fock densities                     ... done
Calculating cut-offs                               ... done
Initializing the effective Hamiltonian             ... done
Setting up the integral package (SHARK)            ... done
Starting the Coulomb interaction                   ... done (   0.1 sec)
Making the grid                                    ... done (   0.1 sec)
Mapping shells                                     ... done
Starting the XC term evaluation                    ... done (   0.1 sec)
  promolecular density results
     # of electrons  =     97.999353274
     EX              =   -100.046421026
     EC              =     -3.639891929
     EX+EC           =   -103.686312955
Transforming the Hamiltonian                       ... done (   0.0 sec)
Diagonalizing the Hamiltonian                      ... done (   0.0 sec)
Back transforming the eigenvectors                 ... done (   0.0 sec)
Now organizing SCF variables                       ... done
                      ------------------
                      INITIAL GUESS DONE (   0.4 sec)
                      ------------------
             **** ENERGY FILE WAS UPDATED (TFTFE_C1.en.tmp) ****
Finished Guess after   0.5 sec
Maximum memory used throughout the entire GUESS-calculation: 12.0 MB

-------------------------------------------------------------------------------------------
                                      ORCA LEAN-SCF
                              memory conserving SCF solver
-------------------------------------------------------------------------------------------

----------------------------------------D-I-I-S--------------------------------------------
Iteration    Energy (Eh)           Delta-E    RMSDP     MaxDP     DIISErr   Damp  Time(sec)
-------------------------------------------------------------------------------------------
               ***  Starting incremental Fock matrix formation  ***
    1    -927.0600799961169969     0.00e+00  2.82e-03  8.36e-02  2.17e-01  0.700   3.6
    2    -927.1602336773081561    -1.00e-01  1.57e-03  4.38e-02  8.55e-02  0.700   1.7
                               ***Turning on AO-DIIS***
    3    -927.1939516081491774    -3.37e-02  4.59e-04  1.24e-02  2.03e-02  0.700   1.6
    4    -927.2162811577362618    -2.23e-02  7.93e-04  1.44e-02  1.26e-02  0.000   1.5
                              *** Initializing SOSCF ***
---------------------------------------S-O-S-C-F--------------------------------------
Iteration    Energy (Eh)           Delta-E    RMSDP     MaxDP     MaxGrad    Time(sec)
--------------------------------------------------------------------------------------
    5    -927.2674212817154284    -5.11e-02  1.34e-04  2.55e-03  2.81e-03     1.6
               *** Restarting incremental Fock matrix formation ***
    6    -927.2674408593126145    -1.96e-05  5.61e-05  1.45e-03  3.40e-04     3.4
    7    -927.2674401241339410     7.35e-07  2.79e-05  6.07e-04  3.49e-04     2.6
    8    -927.2674459497508224    -5.83e-06  6.04e-06  1.42e-04  3.44e-05     2.4
    9    -927.2674459673065712    -1.76e-08  2.69e-06  7.58e-05  3.77e-05     2.2
   10    -927.2674460041356497    -3.68e-08  1.37e-06  3.49e-05  8.89e-06     1.8
   11    -927.2674460028478052     1.29e-09  6.99e-07  2.21e-05  5.95e-06     1.8
                 **** Energy Check signals convergence ****

               *****************************************************
               *                     SUCCESS                       *
               *           SCF CONVERGED AFTER  11 CYCLES          *
               *****************************************************

Recomputing exchange energy using gridx3       ... done (    5.620 sec)
Old exchange energy                            :    -20.069709499 Eh
New exchange energy                            :    -20.069728161 Eh
Exchange energy change after final integration :     -0.000018662 Eh
Total energy after final integration           :   -927.267464667 Eh
             **** ENERGY FILE WAS UPDATED (TFTFE_C1.en.tmp) ****

----------------
TOTAL SCF ENERGY
----------------

Total Energy       :       -927.26746466741497 Eh          -25232.23050 eV

Components:
Nuclear Repulsion  :        839.22072501986815 Eh           22836.35691 eV
Electronic Energy  :      -1766.48817102504927 Eh          -48068.58689 eV
One Electron Energy:      -2955.39755996617305 Eh          -80420.45610 eV
Two Electron Energy:       1188.90938894112378 Eh           32351.86921 eV

Virial components:
Potential Energy   :      -1848.91721366657612 Eh          -50311.59518 eV
Kinetic Energy     :        921.64974899916115 Eh           25079.36468 eV
Virial Ratio       :          2.00609528258902

DFT components:
N(Alpha)           :       48.999998172542 electrons
N(Beta)            :       48.999998172542 electrons
N(Total)           :       97.999996345084 electrons
E(X)               :      -79.947392173585 Eh       
E(C)               :       -4.257008108668 Eh       
E(XC)              :      -84.204400282253 Eh       

---------------
SCF CONVERGENCE
---------------

  Last Energy change         ...   -1.2878e-09  Tolerance :   1.0000e-08
  Last MAX-Density change    ...    2.2127e-05  Tolerance :   1.0000e-07
  Last RMS-Density change    ...    6.9928e-07  Tolerance :   5.0000e-09
  Last DIIS Error            ...    2.8095e-03  Tolerance :   5.0000e-07
  Last Orbital Gradient      ...    5.9535e-06  Tolerance :   1.0000e-05
  Last Orbital Rotation      ...    4.7638e-06  Tolerance :   1.0000e-05


----------------
ORBITAL ENERGIES
----------------

  NO   OCC          E(Eh)            E(eV) 
   0   2.0000     -24.737999      -673.1552 
   1   2.0000     -24.736810      -673.1228 
   2   2.0000     -24.729911      -672.9351 
   3   2.0000     -24.724190      -672.7794 
   4   2.0000     -24.722919      -672.7448 
   5   2.0000     -24.720986      -672.6922 
   6   2.0000     -24.717195      -672.5891 
   7   2.0000     -19.201058      -522.4873 
   8   2.0000     -10.444879      -284.2196 
   9   2.0000     -10.436049      -283.9793 
  10   2.0000     -10.382043      -282.5097 
  11   2.0000     -10.285015      -279.8695 
  12   2.0000      -1.300540       -35.3895 
  13   2.0000      -1.292968       -35.1835 
  14   2.0000      -1.258653       -34.2497 
  15   2.0000      -1.220849       -33.2210 
  16   2.0000      -1.212235       -32.9866 
  17   2.0000      -1.208823       -32.8937 
  18   2.0000      -1.197499       -32.5856 
  19   2.0000      -1.076339       -29.2887 
  20   2.0000      -0.815885       -22.2014 
  21   2.0000      -0.762507       -20.7489 
  22   2.0000      -0.681548       -18.5459 
  23   2.0000      -0.665322       -18.1043 
  24   2.0000      -0.617168       -16.7940 
  25   2.0000      -0.612741       -16.6735 
  26   2.0000      -0.606948       -16.5159 
  27   2.0000      -0.599302       -16.3078 
  28   2.0000      -0.588147       -16.0043 
  29   2.0000      -0.564830       -15.3698 
  30   2.0000      -0.562258       -15.2998 
  31   2.0000      -0.558483       -15.1971 
  32   2.0000      -0.505640       -13.7592 
  33   2.0000      -0.488073       -13.2811 
  34   2.0000      -0.476957       -12.9787 
  35   2.0000      -0.473222       -12.8770 
  36   2.0000      -0.470184       -12.7943 
  37   2.0000      -0.454022       -12.3546 
  38   2.0000      -0.447079       -12.1657 
  39   2.0000      -0.438926       -11.9438 
  40   2.0000      -0.438016       -11.9190 
  41   2.0000      -0.428997       -11.6736 
  42   2.0000      -0.426397       -11.6029 
  43   2.0000      -0.422863       -11.5067 
  44   2.0000      -0.415943       -11.3184 
  45   2.0000      -0.414644       -11.2830 
  46   2.0000      -0.382709       -10.4141 
  47   2.0000      -0.372627       -10.1397 
  48   2.0000      -0.337305        -9.1785 
  49   0.0000       0.038323         1.0428 
  50   0.0000       0.055644         1.5142 
  51   0.0000       0.065705         1.7879 
  52   0.0000       0.082796         2.2530 
  53   0.0000       0.095581         2.6009 
  54   0.0000       0.113813         3.0970 
  55   0.0000       0.164267         4.4699 
  56   0.0000       0.183546         4.9945 
  57   0.0000       0.196397         5.3442 
  58   0.0000       0.205431         5.5901 
  59   0.0000       0.208697         5.6789 
*Only the first 10 virtual orbitals were printed.

                    ********************************
                    * MULLIKEN POPULATION ANALYSIS *
                    ********************************

-----------------------
MULLIKEN ATOMIC CHARGES
-----------------------
   0 O :   -0.376765
   1 C :    0.178780
   2 C :    0.487460
   3 F :   -0.174370
   4 F :   -0.176389
   5 F :   -0.173284
   6 H :    0.043883
   7 H :    0.052217
   8 C :    0.417446
   9 F :   -0.187478
  10 F :   -0.182504
  11 C :    0.470190
  12 F :   -0.202802
  13 F :   -0.203148
  14 H :    0.026763
Sum of atomic charges:    0.0000000

--------------------------------
MULLIKEN REDUCED ORBITAL CHARGES
--------------------------------
  0 O s       :     3.787126  s :     3.787126
      pz      :     1.332694  p :     4.574805
      px      :     1.444142
      py      :     1.797968
      dz2     :     0.005864  d :     0.014834
      dxz     :     0.002085
      dyz     :     0.001826
      dx2y2   :     0.002589
      dxy     :     0.002471

  1 C s       :     2.996732  s :     2.996732
      pz      :     0.976536  p :     2.768601
      px      :     0.776191
      py      :     1.015874
      dz2     :     0.010710  d :     0.055887
      dxz     :     0.008776
      dyz     :     0.008615
      dx2y2   :     0.011424
      dxy     :     0.016361

  2 C s       :     2.970913  s :     2.970913
      pz      :     0.913568  p :     2.367673
      px      :     0.696775
      py      :     0.757330
      dz2     :     0.032996  d :     0.173954
      dxz     :     0.024987
      dyz     :     0.036281
      dx2y2   :     0.035085
      dxy     :     0.044605

  3 F s       :     3.898943  s :     3.898943
      pz      :     1.690180  p :     5.267400
      px      :     1.873476
      py      :     1.703744
      dz2     :     0.001610  d :     0.008028
      dxz     :     0.001064
      dyz     :     0.003175
      dx2y2   :     0.001151
      dxy     :     0.001027

  4 F s       :     3.899037  s :     3.899037
      pz      :     1.880348  p :     5.269375
      px      :     1.561029
      py      :     1.827997
      dz2     :     0.001113  d :     0.007977
      dxz     :     0.001694
      dyz     :     0.000513
      dx2y2   :     0.002227
      dxy     :     0.002431

  5 F s       :     3.899844  s :     3.899844
      pz      :     1.906219  p :     5.265388
      px      :     1.697685
      py      :     1.661484
      dz2     :     0.001175  d :     0.008052
      dxz     :     0.000826
      dyz     :     0.000986
      dx2y2   :     0.001640
      dxy     :     0.003425

  6 H s       :     0.934331  s :     0.934331
      pz      :     0.003982  p :     0.021786
      px      :     0.006777
      py      :     0.011028

  7 H s       :     0.924236  s :     0.924236
      pz      :     0.008937  p :     0.023547
      px      :     0.004682
      py      :     0.009928

  8 C s       :     2.988099  s :     2.988099
      pz      :     0.782221  p :     2.437879
      px      :     0.935490
      py      :     0.720168
      dz2     :     0.036247  d :     0.156576
      dxz     :     0.022447
      dyz     :     0.033782
      dx2y2   :     0.033483
      dxy     :     0.030617

  9 F s       :     3.903135  s :     3.903135
      pz      :     1.827132  p :     5.276467
      px      :     1.706463
      py      :     1.742872
      dz2     :     0.001046  d :     0.007877
      dxz     :     0.001587
      dyz     :     0.001440
      dx2y2   :     0.001381
      dxy     :     0.002423

 10 F s       :     3.906560  s :     3.906560
      pz      :     1.869570  p :     5.267942
      px      :     1.877116
      py      :     1.521256
      dz2     :     0.001095  d :     0.008002
      dxz     :     0.000292
      dyz     :     0.002055
      dx2y2   :     0.002719
      dxy     :     0.001841

 11 C s       :     3.004004  s :     3.004004
      pz      :     0.651561  p :     2.407988
      px      :     0.847895
      py      :     0.908532
      dz2     :     0.034312  d :     0.117818
      dxz     :     0.024076
      dyz     :     0.022626
      dx2y2   :     0.020961
      dxy     :     0.015843

 12 F s       :     3.909437  s :     3.909437
      pz      :     1.829350  p :     5.285462
      px      :     1.712885
      py      :     1.743227
      dz2     :     0.001001  d :     0.007903
      dxz     :     0.001558
      dyz     :     0.001351
      dx2y2   :     0.001563
      dxy     :     0.002431

 13 F s       :     3.908544  s :     3.908544
      pz      :     1.478006  p :     5.286672
      px      :     1.894933
      py      :     1.913733
      dz2     :     0.004151  d :     0.007932
      dxz     :     0.001837
      dyz     :     0.001748
      dx2y2   :     0.000120
      dxy     :     0.000076

 14 H s       :     0.953067  s :     0.953067
      pz      :     0.002865  p :     0.020170
      px      :     0.003474
      py      :     0.013831



                     *******************************
                     * LOEWDIN POPULATION ANALYSIS *
                     *******************************

----------------------
LOEWDIN ATOMIC CHARGES
----------------------
   0 O :   -0.155434
   1 C :    0.054867
   2 C :    0.173681
   3 F :   -0.065790
   4 F :   -0.066078
   5 F :   -0.063799
   6 H :    0.034153
   7 H :    0.032381
   8 C :    0.151928
   9 F :   -0.071970
  10 F :   -0.063111
  11 C :    0.181025
  12 F :   -0.081560
  13 F :   -0.081118
  14 H :    0.020824

-------------------------------
LOEWDIN REDUCED ORBITAL CHARGES
-------------------------------
  0 O s       :     3.484431  s :     3.484431
      pz      :     1.379089  p :     4.644086
      px      :     1.475899
      py      :     1.789098
      dz2     :     0.011856  d :     0.026916
      dxz     :     0.004312
      dyz     :     0.002652
      dx2y2   :     0.004255
      dxy     :     0.003841

  1 C s       :     2.860711  s :     2.860711
      pz      :     1.029147  p :     2.953685
      px      :     0.857295
      py      :     1.067243
      dz2     :     0.027569  d :     0.130737
      dxz     :     0.018606
      dyz     :     0.022419
      dx2y2   :     0.024124
      dxy     :     0.038018

  2 C s       :     2.863168  s :     2.863168
      pz      :     0.973272  p :     2.597333
      px      :     0.790444
      py      :     0.833617
      dz2     :     0.072968  d :     0.365818
      dxz     :     0.046093
      dyz     :     0.079613
      dx2y2   :     0.070594
      dxy     :     0.096550

  3 F s       :     3.737770  s :     3.737770
      pz      :     1.711342  p :     5.315347
      px      :     1.875782
      py      :     1.728223
      dz2     :     0.002245  d :     0.012674
      dxz     :     0.001445
      dyz     :     0.005730
      dx2y2   :     0.001792
      dxy     :     0.001462

  4 F s       :     3.737876  s :     3.737876
      pz      :     1.876948  p :     5.315659
      px      :     1.604020
      py      :     1.834692
      dz2     :     0.001814  d :     0.012542
      dxz     :     0.002518
      dyz     :     0.000712
      dx2y2   :     0.003518
      dxy     :     0.003981

  5 F s       :     3.738064  s :     3.738064
      pz      :     1.901546  p :     5.313041
      px      :     1.722229
      py      :     1.689266
      dz2     :     0.002102  d :     0.012693
      dxz     :     0.001086
      dyz     :     0.001308
      dx2y2   :     0.001984
      dxy     :     0.006214

  6 H s       :     0.897899  s :     0.897899
      pz      :     0.012426  p :     0.067948
      px      :     0.022892
      py      :     0.032629

  7 H s       :     0.895446  s :     0.895446
      pz      :     0.027848  p :     0.072173
      px      :     0.015237
      py      :     0.029088

  8 C s       :     2.873570  s :     2.873570
      pz      :     0.858502  p :     2.644465
      px      :     0.984901
      py      :     0.801062
      dz2     :     0.082105  d :     0.330037
      dxz     :     0.042841
      dyz     :     0.067538
      dx2y2   :     0.073527
      dxy     :     0.064025

  9 F s       :     3.739192  s :     3.739192
      pz      :     1.835009  p :     5.320173
      px      :     1.723242
      py      :     1.761921
      dz2     :     0.001467  d :     0.012606
      dxz     :     0.002654
      dyz     :     0.002404
      dx2y2   :     0.001852
      dxy     :     0.004228

 10 F s       :     3.736951  s :     3.736951
      pz      :     1.871356  p :     5.313361
      px      :     1.875316
      py      :     1.566689
      dz2     :     0.001728  d :     0.012799
      dxz     :     0.000400
      dyz     :     0.003202
      dx2y2   :     0.004663
      dxy     :     0.002806

 11 C s       :     2.876374  s :     2.876374
      pz      :     0.763107  p :     2.683885
      px      :     0.939507
      py      :     0.981270
      dz2     :     0.075584  d :     0.258716
      dxz     :     0.050378
      dyz     :     0.047050
      dx2y2   :     0.052027
      dxy     :     0.033677

 12 F s       :     3.741182  s :     3.741182
      pz      :     1.833988  p :     5.328226
      px      :     1.725851
      py      :     1.768388
      dz2     :     0.001338  d :     0.012151
      dxz     :     0.002435
      dyz     :     0.002163
      dx2y2   :     0.002099
      dxy     :     0.004116

 13 F s       :     3.739827  s :     3.739827
      pz      :     1.526292  p :     5.329090
      px      :     1.888354
      py      :     1.914444
      dz2     :     0.007158  d :     0.012201
      dxz     :     0.002472
      dyz     :     0.002314
      dx2y2   :     0.000163
      dxy     :     0.000095

 14 H s       :     0.911492  s :     0.911492
      pz      :     0.010845  p :     0.067684
      px      :     0.011451
      py      :     0.045388



                      *****************************
                      * MAYER POPULATION ANALYSIS *
                      *****************************

  NA   - Mulliken gross atomic population
  ZA   - Total nuclear charge
  QA   - Mulliken gross atomic charge
  VA   - Mayer's total valence
  BVA  - Mayer's bonded valence
  FA   - Mayer's free valence

  ATOM       NA         ZA         QA         VA         BVA        FA
  0 O      8.3768     8.0000    -0.3768     2.0705     2.0705     0.0000
  1 C      5.8212     6.0000     0.1788     3.8891     3.8891     0.0000
  2 C      5.5125     6.0000     0.4875     4.4795     4.4795     0.0000
  3 F      9.1744     9.0000    -0.1744     1.1749     1.1749    -0.0000
  4 F      9.1764     9.0000    -0.1764     1.1753     1.1753    -0.0000
  5 F      9.1733     9.0000    -0.1733     1.1772     1.1772     0.0000
  6 H      0.9561     1.0000     0.0439     0.9991     0.9991     0.0000
  7 H      0.9478     1.0000     0.0522     1.0211     1.0211    -0.0000
  8 C      5.5826     6.0000     0.4174     4.3059     4.3059     0.0000
  9 F      9.1875     9.0000    -0.1875     1.1600     1.1600     0.0000
 10 F      9.1825     9.0000    -0.1825     1.1755     1.1755    -0.0000
 11 C      5.5298     6.0000     0.4702     4.0990     4.0990     0.0000
 12 F      9.2028     9.0000    -0.2028     1.1497     1.1497     0.0000
 13 F      9.2031     9.0000    -0.2031     1.1492     1.1492    -0.0000
 14 H      0.9732     1.0000     0.0268     0.9939     0.9939    -0.0000

  Mayer bond orders larger than 0.100000
B(  0-O ,  1-C ) :   0.9218 B(  0-O ,  8-C ) :   1.0952 B(  1-C ,  2-C ) :   1.0166 
B(  1-C ,  6-H ) :   0.9349 B(  1-C ,  7-H ) :   0.9220 B(  2-C ,  3-F ) :   1.1364 
B(  2-C ,  4-F ) :   1.1195 B(  2-C ,  5-F ) :   1.1370 B(  8-C ,  9-F ) :   1.0807 
B(  8-C , 10-F ) :   1.0899 B(  8-C , 11-C ) :   0.9229 B( 11-C , 12-F ) :   1.0963 
B( 11-C , 13-F ) :   1.0898 B( 11-C , 14-H ) :   0.9444 

-------
TIMINGS
-------

Total SCF time: 0 days 0 hours 0 min 31 sec 

Total time                  ....      31.438 sec
Sum of individual times     ....      29.780 sec  ( 94.7%)

SCF preparation             ....       0.077 sec  (  0.2%)
Fock matrix formation       ....      29.599 sec  ( 94.1%)
  Startup                   ....       0.002 sec  (  0.0% of F)
  Split-RI-J                ....       2.449 sec  (  8.3% of F)
  Chain of spheres X        ....      24.220 sec  ( 81.8% of F)
  XC integration            ....       4.485 sec  ( 15.2% of F)
    XC Preparation          ....       0.000 sec  (  0.0% of XC)
    Basis function eval.    ....       1.791 sec  ( 39.9% of XC)
    Density eval.           ....       1.114 sec  ( 24.8% of XC)
    XC-Functional eval.     ....       0.305 sec  (  6.8% of XC)
    XC-Potential eval.      ....       1.110 sec  ( 24.7% of XC)
Diagonalization             ....       0.000 sec  (  0.0%)
Density matrix formation    ....       0.013 sec  (  0.0%)
Total Energy calculation    ....       0.002 sec  (  0.0%)
Population analysis         ....       0.009 sec  (  0.0%)
Orbital Transformation      ....       0.009 sec  (  0.0%)
Orbital Orthonormalization  ....       0.000 sec  (  0.0%)
DIIS solution               ....       0.043 sec  (  0.1%)
SOSCF solution              ....       0.029 sec  (  0.1%)
Finished LeanSCF after  31.4 sec

Maximum memory used throughout the entire LEANSCF-calculation: 19.9 MB

------------------------------------------------------------------------------
                         ORCA PROPERTY INTEGRAL CALCULATIONS
------------------------------------------------------------------------------

GBWName                                   ... TFTFE_C1.gbw
Number of atoms                           ...     15
Number of basis functions                 ...    183
Max core memory                           ...   4096 MB

Dipole integrals                          ... YES
Quadrupole integrals                      ...  NO
Linear momentum integrals                 ...  NO
Angular momentum integrals                ...  NO
Higher moments length integrals           ...  NO
Higher moments velocity integrals         ...  NO
Kinetic energy integrals                  ...  NO
GIAO right hand sides                     ...  NO
GIAO dipole derivative integrals          ...  NO
SOC integrals                             ...  NO
EPR diamagnetic integrals (GIAO)          ...  NO
EPR gauge integrals                       ...  NO
Field gradient integrals                  ...  NO (   0 nuclei)
Spin-dipole/Fermi contact integrals       ...  NO (   0 nuclei)
Contact density integrals                 ...  NO (   0 nuclei)
Nucleus-orbit integrals                   ...  NO (   0 nuclei)
Geometric perturbations                   ...  NO (  15 nuclei)

Choice of electric origin   ... Center of mass
Position of electric origin ... ( -0.7211, -0.1283, -2.8700) 
Choice of magnetic origin   ... GIAO
Position of magnetic origin ... (  0.0000,  0.0000,  0.0000) 

Calculating integrals                     ... Electric Dipole (Length)     done (  0.0 sec)

Property integrals calculated in   0.0 sec

Maximum memory used throughout the entire PROPINT-calculation: 12.3 MB

-------------------------   --------------------
FINAL SINGLE POINT ENERGY      -927.267464667415
-------------------------   --------------------

------------------------------------------------------------------------------
                         ORCA SCF GRADIENT CALCULATION
------------------------------------------------------------------------------

Nuc. rep. gradient        (SHARK) ... done (  0.0 sec)
HCore & Overlap gradient  (SHARK) ... done (  0.1 sec)
Split-RIJ-J gradient      (SHARK) ... done (  0.9 sec)
done ( 18.1 sec)
XC gradient                       ... done (  3.3 sec)

------------------
CARTESIAN GRADIENT
------------------

   1   O   :   -0.010382652   -0.007698194    0.031010475
   2   C   :   -0.001278550    0.005230879    0.001241306
   3   C   :   -0.009420970   -0.003654363   -0.008837010
   4   F   :    0.001817532   -0.007224966    0.007014109
   5   F   :   -0.007572199    0.006598019    0.006003014
   6   F   :    0.008083347    0.009018922    0.000606975
   7   H   :    0.004797673    0.001669551   -0.004251571
   8   H   :   -0.000681362   -0.003279012   -0.000388011
   9   C   :    0.026103835   -0.010009456   -0.040245828
  10   F   :   -0.008775090   -0.002224008    0.007641019
  11   F   :   -0.006643704    0.006930607    0.007612542
  12   C   :   -0.024451044   -0.007625125    0.004688106
  13   F   :    0.013249813    0.004043759   -0.001338532
  14   F   :    0.012136952    0.001474816   -0.007660279
  15   H   :    0.003016418    0.006748569   -0.003096317

Difference to translation invariance:
           :   -0.0000000000    0.0000000002    0.0000000000

Difference to rotation invariance:
           :   -0.0000059789    0.0003861284   -0.0000023499

Norm of the Cartesian gradient     ...    0.0749613603
RMS gradient                       ...    0.0111745798
MAX gradient                       ...    0.0402458277

-------
TIMINGS
-------

Total SCF gradient time     ....       22.380 sec

Densities                   ....       0.000 sec  (  0.0%)
One electron gradient       ....       0.113 sec  (  0.5%)
RI-J Coulomb gradient       ....       0.928 sec  (  4.1%)
COSX gradient               ....      18.086 sec  ( 80.8%)
XC gradient                 ....       3.251 sec  ( 14.5%)

Maximum memory used throughout the entire SCFGRAD-calculation: 23.8 MB
------------------------------------------------------------------------------
                         ORCA GEOMETRY RELAXATION STEP
------------------------------------------------------------------------------

Reading the OPT-File                    .... done
Getting information on internals        .... done
Copying old internal coords+grads       .... done
Making the new internal coordinates     .... (2022 redundants) done
Validating the new internal coordinates .... (2022 redundants) done
Calculating the B-matrix                .... done
Calculating the G,G- and P matrices     .... done
Transforming gradient to internals      .... done
Projecting the internal gradient        .... done
Number of atoms                         ....  15
Number of internal coordinates          ....  57
Current Energy                          ....  -927.267464667 Eh
Current gradient norm                   ....     0.074961360 Eh/bohr
Maximum allowed component of the step   ....  0.300
Current trust radius                    ....  0.300
Evaluating the initial hessian          ....  (Almloef) done
Projecting the Hessian                  .... done
Forming the augmented Hessian           .... done
Diagonalizing the augmented Hessian     .... done
Last element of RFO vector              ....  0.980013499
Lowest eigenvalues of augmented Hessian:
 -0.011419779  0.011087415  0.011728546  0.017906160  0.019511996
Length of the computed step             ....  0.202988018
The final length of the internal step   ....  0.202988018
Converting the step to Cartesian space:
 Initial RMS(Int)=    0.0268864198
Transforming coordinates:
 Iter   0:  RMS(Cart)=    0.0992040317 RMS(Int)=    0.8299362642
 Iter   5:  RMS(Cart)=    0.0000000993 RMS(Int)=    0.0000000725
done
Storing new coordinates                 .... done

                                .--------------------.
          ----------------------|Geometry convergence|-------------------------
          Item                value                   Tolerance       Converged
          ---------------------------------------------------------------------
          RMS gradient        0.0089462425            0.0001000000      NO
          MAX gradient        0.0340628591            0.0003000000      NO
          RMS step            0.0268864198            0.0020000000      NO
          MAX step            0.0743401856            0.0040000000      NO
          -------------------------------------------------------------------------
          ........................................................
          Max(Bonds)      0.0357      Max(Angles)    3.19
          Max(Dihed)        4.26      Max(Improp)    0.00
          ---------------------------------------------------------------------

The optimization has not yet converged - more geometry cycles are needed


    ---------------------------------------------------------------------------
                         Redundant Internal Coordinates
                            (Angstroem and degrees)

        Definition                    Value    dE/dq     Step     New-Value
    ----------------------------------------------------------------------------
     1. B(C   1,O   0)                1.4338  0.006883 -0.0075    1.4263   
     2. B(C   2,C   1)                1.5237  0.006128 -0.0082    1.5154   
     3. B(F   3,C   2)                1.3508  0.010217 -0.0088    1.3420   
     4. B(F   4,C   2)                1.3522  0.010743 -0.0093    1.3429   
     5. B(F   5,C   2)                1.3517  0.012120 -0.0105    1.3412   
     6. B(H   6,C   1)                1.0954 -0.004246  0.0062    1.1016   
     7. B(H   7,C   1)                1.0953 -0.001734  0.0025    1.0978   
     8. B(C   8,O   0)                1.4239  0.034063 -0.0357    1.3883   
     9. B(F   9,C   8)                1.3568  0.003758 -0.0033    1.3535   
    10. B(F  10,C   8)                1.3566  0.005773 -0.0051    1.3515   
    11. B(C  11,C   8)                1.5309  0.004463 -0.0062    1.5248   
    12. B(F  12,C  11)                1.3616  0.010633 -0.0096    1.3521   
    13. B(F  13,C  11)                1.3598  0.009400 -0.0084    1.3514   
    14. B(H  14,C  11)                1.0934 -0.006479  0.0093    1.1028   
    15. A(C   1,O   0,C   8)          112.30 -0.017435    2.47    114.77   
    16. A(O   0,C   1,H   7)          111.72 -0.003514    0.47    112.19   
    17. A(C   2,C   1,H   6)          109.85  0.002007   -0.57    109.28   
    18. A(C   2,C   1,H   7)          108.28 -0.001040   -0.13    108.15   
    19. A(H   6,C   1,H   7)          107.88 -0.001304    0.86    108.75   
    20. A(O   0,C   1,H   6)          108.32 -0.006845    1.27    109.60   
    21. A(O   0,C   1,C   2)          110.73  0.010510   -1.85    108.87   
    22. A(F   4,C   2,F   5)          107.50 -0.001742    0.32    107.83   
    23. A(C   1,C   2,F   4)          110.73  0.009162   -1.34    109.38   
    24. A(F   3,C   2,F   5)          108.01 -0.001056    0.23    108.25   
    25. A(C   1,C   2,F   5)          111.25 -0.001460    0.31    111.56   
    26. A(C   1,C   2,F   3)          111.54 -0.002574    0.33    111.86   
    27. A(F   3,C   2,F   4)          107.64 -0.002564    0.18    107.81   
    28. A(O   0,C   8,F  10)          108.30 -0.017512    3.19    111.49   
    29. A(O   0,C   8,F   9)          107.13 -0.016951    2.76    109.89   
    30. A(F  10,C   8,C  11)          111.13  0.003549   -0.88    110.25   
    31. A(F   9,C   8,C  11)          111.03  0.007003   -1.73    109.30   
    32. A(O   0,C   8,C  11)          111.77  0.021572   -3.08    108.69   
    33. A(F   9,C   8,F  10)          107.27  0.000291    0.10    107.38   
    34. A(F  13,C  11,H  14)          108.55 -0.006713    0.95    109.50   
    35. A(F  12,C  11,H  14)          108.14 -0.007961    1.15    109.29   
    36. A(C   8,C  11,H  14)          111.53  0.001785   -0.46    111.07   
    37. A(F  12,C  11,F  13)          106.26 -0.014347    2.16    108.42   
    38. A(C   8,C  11,F  13)          111.21  0.015320   -2.14    109.08   
    39. A(C   8,C  11,F  12)          110.94  0.010293   -1.42    109.53   
    40. D(C   2,C   1,O   0,C   8)   -148.06  0.000236    0.21   -147.86   
    41. D(H   7,C   1,O   0,C   8)    -27.28  0.003775   -0.92    -28.20   
    42. D(H   6,C   1,O   0,C   8)     91.42 -0.004273    1.23     92.65   
    43. D(F   3,C   2,C   1,H   7)    171.20 -0.000862    1.64    172.85   
    44. D(F   3,C   2,C   1,H   6)     53.62  0.000182    1.00     54.62   
    45. D(F   4,C   2,C   1,O   0)    174.17 -0.000444    1.42    175.59   
    46. D(F   4,C   2,C   1,H   7)     51.36 -0.002075    2.11     53.47   
    47. D(F   3,C   2,C   1,O   0)    -65.99  0.000769    0.96    -65.03   
    48. D(F   4,C   2,C   1,H   6)    -66.23 -0.001031    1.47    -64.76   
    49. D(C  11,C   8,O   0,C   1)    175.21 -0.002955    3.34    178.55   
    50. D(F  10,C   8,O   0,C   1)     52.46 -0.009403    4.26     56.72   
    51. D(F   9,C   8,O   0,C   1)    -62.96  0.007677    1.14    -61.83   
    52. D(F  12,C  11,C   8,F  10)     59.83 -0.004594    0.53     60.36   
    53. D(F  12,C  11,C   8,F   9)    179.14  0.002724   -1.06    178.08   
    54. D(F  12,C  11,C   8,O   0)    -61.30  0.000403   -0.80    -62.10   
    55. D(F  13,C  11,C   8,F  10)    -58.22 -0.003107    0.12    -58.10   
    56. D(F  13,C  11,C   8,F   9)     61.10  0.004211   -1.47     59.63   
    57. D(F  13,C  11,C   8,O   0)   -179.34  0.001891   -1.21   -180.55   
    ----------------------------------------------------------------------------

Geometry step timings:
Preparation and reading OPT file:      0.000 s ( 2.106 %)
Internal coordinates            :      0.000 s ( 1.005 %)
B/P matrices and projection     :      0.001 s (32.982 %)
Hessian update/contruction      :      0.000 s (12.350 %)
Making the step                 :      0.001 s (25.945 %)
Converting the step to Cartesian:      0.000 s ( 5.649 %)
Storing new data                :      0.000 s ( 2.872 %)
Checking convergence            :      0.000 s ( 1.197 %)
Final printing                  :      0.000 s (15.797 %)
Total time                      :      0.002 s

Time for energy+gradient        :     55.918 s
Time for complete geometry iter :     55.968 s

         *************************************************************
         *                GEOMETRY OPTIMIZATION CYCLE   2            *
         *************************************************************
---------------------------------
CARTESIAN COORDINATES (ANGSTROEM)
---------------------------------
  O     -0.337091   -0.559224   -1.370970
  C     -1.638255   -0.163931   -0.940812
  C     -1.533830    0.439244    0.445483
  F     -1.139447   -0.464865    1.355402
  F     -2.736766    0.902812    0.821573
  F     -0.671342    1.465987    0.472529
  H     -2.298871   -1.044733   -0.905456
  H     -2.085081    0.585480   -1.607011
  C     -0.122258   -0.462307   -2.739096
  F     -0.974507   -1.282782   -3.396731
  F     -0.347147    0.792761   -3.187120
  C      1.312842   -0.881089   -3.039109
  F      2.168380   -0.038089   -2.418247
  F      1.526603   -0.800972   -4.371091
  H      1.504702   -1.911734   -2.696993

----------------------------
CARTESIAN COORDINATES (A.U.)
----------------------------
  NO LB      ZA    FRAG     MASS         X           Y           Z
   0 O     8.0000    0    15.999   -0.637010   -1.056780   -2.590757
   1 C     6.0000    0    12.011   -3.095854   -0.309784   -1.777876
   2 C     6.0000    0    12.011   -2.898519    0.830051    0.841840
   3 F     9.0000    0    18.998   -2.153242   -0.878467    2.561338
   4 F     9.0000    0    18.998   -5.171737    1.706067    1.552548
   5 F     9.0000    0    18.998   -1.268653    2.770315    0.892951
   6 H     1.0000    0     1.008   -4.344237   -1.974259   -1.711064
   7 H     1.0000    0     1.008   -3.940233    1.106398   -3.036811
   8 C     6.0000    0    12.011   -0.231034   -0.873633   -5.176142
   9 F     9.0000    0    18.998   -1.841552   -2.424107   -6.418892
  10 F     9.0000    0    18.998   -0.656013    1.498101   -6.022783
  11 C     6.0000    0    12.011    2.480911   -1.665017   -5.743084
  12 F     9.0000    0    18.998    4.097644   -0.071978   -4.569825
  13 F     9.0000    0    18.998    2.884861   -1.513618   -8.260165
  14 H     1.0000    0     1.008    2.843475   -3.612653   -5.096578

--------------------------------
INTERNAL COORDINATES (ANGSTROEM)
--------------------------------
 O      0   0   0     0.000000000000     0.00000000     0.00000000
 C      1   0   0     1.426296077144     0.00000000     0.00000000
 C      2   1   0     1.515432868710   108.86495480     0.00000000
 F      3   2   1     1.341977483470   111.86134489   294.96881333
 F      3   2   1     1.342904418545   109.38186636   175.59012196
 F      3   2   1     1.341200681458   111.55916322    56.38511946
 H      2   1   3     1.101578378034   109.58254342   240.53204792
 H      2   1   3     1.097767069569   112.17863104   119.65392915
 C      1   2   3     1.388278439191   114.77378307   212.13495567
 F      9   1   2     1.353511251491   109.81985275   298.07182529
 F      9   1   2     1.351478666628   111.45527588    56.81988659
 C      9   1   2     1.524761599004   108.68583028   178.54720572
 F     12   9   1     1.352059232018   109.50932343   297.91913339
 F     12   9   1     1.351402349419   109.05807039   179.45707879
 H     12   9   1     1.102761366365   111.06345215    58.70393514

---------------------------
INTERNAL COORDINATES (A.U.)
---------------------------
 O      0   0   0     0.000000000000     0.00000000     0.00000000
 C      1   0   0     2.695308971688     0.00000000     0.00000000
 C      2   1   0     2.863753096205   108.86495480     0.00000000
 F      3   2   1     2.535969921648   111.86134489   294.96881333
 F      3   2   1     2.537721575084   109.38186636   175.59012196
 F      3   2   1     2.534501978584   111.55916322    56.38511946
 H      2   1   3     2.081681449533   109.58254342   240.53204792
 H      2   1   3     2.074479120322   112.17863104   119.65392915
 C      1   2   3     2.623466047698   114.77378307   212.13495567
 F      9   1   2     2.557765584498   109.81985275   298.07182529
 F      9   1   2     2.553924555763   111.45527588    56.81988659
 C      9   1   2     2.881381841637   108.68583028   178.54720572
 F     12   9   1     2.555021665353   109.50932343   297.91913339
 F     12   9   1     2.553780337140   109.05807039   179.45707879
 H     12   9   1     2.083916973499   111.06345215    58.70393514

------------------------------------------------------------------------------
                   ___                                                        
                  /   \      - P O W E R E D   B Y -                         
                 /     \                                                     
                 |  |  |   _    _      __       _____    __    __             
                 |  |  |  | |  | |    /  \     |  _  \  |  |  /  |          
                  \  \/   | |  | |   /    \    | | | |  |  | /  /          
                 / \  \   | |__| |  /  /\  \   | |_| |  |  |/  /          
                |  |  |   |  __  | /  /__\  \  |    /   |      \           
                |  |  |   | |  | | |   __   |  |    \   |  |\   \          
                \     /   | |  | | |  |  |  |  | |\  \  |  | \   \       
                 \___/    |_|  |_| |__|  |__|  |_| \__\ |__|  \__/        
                                                                              
                      - O R C A' S   B I G   F R I E N D -                    
[...]
     23      -0.090659  -0.701147  -0.020137  -0.406317  -0.482117  -0.176820
     24      -0.009018   0.003250  -0.004048  -0.111461   0.146677  -0.034971
     25      -0.063827  -0.042699  -0.024204   0.000416  -0.018882   0.023305
     26      -0.110416  -0.085710  -0.020431   0.043621  -0.091497   0.044469
     27       0.005720   0.000027  -0.003696   0.014325  -0.013886   0.000875
     28       0.013246   0.003021   0.000133   0.013223  -0.008610  -0.002661
     29       0.007327   0.002390   0.001568  -0.000827   0.005696  -0.002760
     30       0.002854   0.001999   0.000269   0.015246  -0.014028   0.003239
     31      -0.000185  -0.000509   0.001337  -0.008103   0.006549  -0.002238
     32       0.011283   0.007712   0.001209   0.007251   0.001391  -0.003041
     33       0.028376   0.030937   0.037932   0.152100  -0.165538   0.039757
     34      -0.013266  -0.012035   0.117642  -0.001043  -0.002738  -0.001073
     35      -0.023305  -0.020984   0.076986  -0.076260   0.076913  -0.019259
     36      -0.001439  -0.002653  -0.012886  -0.019658   0.020935  -0.005388
     37       0.000995   0.002384   0.001108  -0.006158   0.007832  -0.002274
     38       0.001329   0.000381  -0.019319   0.002091  -0.002013   0.000827
     39      -0.008605  -0.007819   0.005778  -0.015183   0.014533  -0.002810
     40       0.008272   0.006790  -0.021199   0.009211  -0.007911   0.001480
     41       0.010098   0.007138   0.005272   0.013448  -0.011429   0.001203
     42      -0.088737  -0.138303  -0.265883  -0.485515   0.491427  -0.114355
     43       0.048120   0.023551  -0.801664  -0.038880   0.048840   0.001865
     44       0.097622   0.109752  -0.511919   0.281976  -0.286067   0.079267
                 42         43         44    
      0       0.001236  -0.000164   0.000478
      1      -0.000132  -0.000038   0.000576
      2      -0.001639   0.000330   0.000125
      3       0.047915  -0.001024  -0.034408
      4      -0.028346   0.000186  -0.089893
      5       0.039132  -0.000497  -0.011219
      6       0.000758  -0.000112  -0.000734
      7      -0.000556   0.000096  -0.002294
      8      -0.001714  -0.000048  -0.000105
      9      -0.000115   0.000018   0.000046
     10       0.000276  -0.000038   0.000519
     11      -0.000244   0.000016  -0.000248
     12      -0.000403   0.000022   0.000082
     13       0.000160  -0.000012   0.000256
     14       0.000227   0.000003   0.000017
     15      -0.000177   0.000018   0.000318
     16      -0.000014  -0.000005   0.000403
     17      -0.000207   0.000014   0.000438
     18      -0.433610   0.009688   0.529245
     19      -0.396880   0.008539   0.475250
     20      -0.237106   0.004945   0.299998
     21      -0.149084   0.002325  -0.125796
     22       0.729959  -0.010045   0.591848
     23      -0.195620   0.002445  -0.168870
     24       0.000681   0.001388  -0.000537
     25       0.000453   0.000661  -0.000117
     26       0.002094  -0.001496  -0.000130
     27      -0.000314  -0.000286   0.000248
     28      -0.000169  -0.000333   0.000069
     29      -0.000074   0.000127  -0.000073
     30      -0.000272   0.000458   0.000038
     31       0.000174  -0.000379   0.000038
     32      -0.000264   0.000398   0.000001
     33      -0.000802  -0.037362   0.000161
     34       0.000849   0.050154  -0.000298
     35      -0.000920  -0.058979   0.000286
     36       0.000042   0.000536   0.000001
     37       0.000018   0.000318   0.000022
     38      -0.000014   0.000631  -0.000001
     39       0.000059   0.000188  -0.000007
     40      -0.000054  -0.000885   0.000014
     41      -0.000095  -0.000117   0.000009
     42       0.006762   0.414810  -0.001514
     43      -0.009490  -0.581606   0.002270
     44       0.011524   0.694237  -0.002729


-----------
IR SPECTRUM
-----------

 Mode   freq       eps      Int      T**2         TX        TY        TZ
       cm**-1   L/(mol*cm) km/mol    a.u.
----------------------------------------------------------------------------
  7:     39.62   0.000042    0.21  0.000328  (-0.016524 -0.000250  0.007419)
  8:     61.27   0.000078    0.39  0.000397  ( 0.007680  0.010405  0.015154)
  9:     78.00   0.000405    2.05  0.001620  ( 0.038549  0.003944 -0.010881)
 10:    141.43   0.000428    2.16  0.000945  (-0.004609 -0.030195  0.003439)
 11:    196.31   0.000106    0.54  0.000169  (-0.003961  0.011367 -0.004938)
 12:    229.69   0.001246    6.30  0.001692  (-0.020176  0.034352  0.010261)
 13:    248.32   0.000220    1.11  0.000276  ( 0.001355 -0.006528  0.015214)
 14:    313.10   0.000382    1.93  0.000381  ( 0.005001  0.008547  0.016809)
 15:    361.16   0.000408    2.06  0.000353  ( 0.000067 -0.018574 -0.002760)
 16:    401.49   0.000539    2.72  0.000419  ( 0.000522 -0.014797 -0.014134)
 17:    443.88   0.000666    3.37  0.000468  (-0.021411  0.002506  0.001905)
 18:    527.07   0.000777    3.93  0.000460  (-0.010645  0.008720 -0.016460)
 19:    539.54   0.000652    3.30  0.000377  (-0.000226  0.019063 -0.003727)
 20:    552.31   0.001321    6.67  0.000746  (-0.003215 -0.010664  0.024942)
 21:    593.47   0.002506   12.67  0.001318  (-0.025728  0.004147  0.025272)
 22:    600.51   0.002214   11.19  0.001151  ( 0.005159  0.004275  0.033254)
 23:    661.56   0.004144   20.94  0.001955  ( 0.014963 -0.000213 -0.041606)
 24:    780.73   0.011237   56.79  0.004492  ( 0.056500 -0.035499  0.006265)
 25:    860.30   0.009322   47.11  0.003382  (-0.038232  0.022505 -0.037596)
 26:    881.43   0.000253    1.28  0.000089  ( 0.002209  0.009187  0.000364)
 27:    978.03   0.006298   31.83  0.002009  ( 0.020653  0.039339 -0.005946)
 28:   1072.47   0.004033   20.38  0.001173  ( 0.026750 -0.019789  0.008143)
 29:   1147.30   0.020652  104.37  0.005617  ( 0.031075  0.057867 -0.036099)
 30:   1166.30   0.034272  173.20  0.009170  ( 0.071908  0.041338 -0.047857)
 31:   1173.22   0.018295   92.45  0.004866  (-0.032736 -0.061488 -0.003706)
 32:   1196.27   0.088705  448.28  0.023140  (-0.010914  0.113825  0.100323)
 33:   1218.08   0.039804  201.15  0.010198  ( 0.100483 -0.006619 -0.007545)
 34:   1250.61   0.087288  441.12  0.021781  ( 0.027486  0.004604 -0.144929)
 35:   1308.04   0.016530   83.54  0.003944  (-0.052650  0.033226 -0.008222)
 36:   1321.13   0.019789  100.01  0.004674  ( 0.063096  0.003038  0.026156)
 37:   1329.31   0.041465  209.55  0.009734  ( 0.014577 -0.094442 -0.024547)
 38:   1390.41   0.003387   17.12  0.000760  ( 0.012012  0.021001  0.013224)
 39:   1441.54   0.005494   27.77  0.001189  (-0.000321  0.010429 -0.032872)
 40:   1464.39   0.006103   30.84  0.001301  ( 0.007172 -0.007459 -0.034546)
 41:   1472.63   0.000717    3.63  0.000152  (-0.008727  0.008685  0.000666)
 42:   3071.64   0.002497   12.62  0.000254  ( 0.012101 -0.008043 -0.006525)
 43:   3087.96   0.004691   23.71  0.000474  (-0.004045  0.012919 -0.017053)
 44:   3140.56   0.000499    2.52  0.000050  (-0.001275 -0.006854  0.000976)

* The epsilon (eps) is given for a Dirac delta lineshape.
** The dipole moment derivative (T) already includes vibrational overlap.

The first frequency considered to be a vibration is 7
The total number of vibrations considered is 38


--------------------------
THERMOCHEMISTRY AT 298.15K
--------------------------

Temperature         ...   298.15 K
Pressure            ...     1.00 atm
Total Mass          ...   200.05 AMU
Quasi RRHO          ...     True
Cut-Off Frequency   ...     1.00 cm^-1

Throughout the following assumptions are being made:
  (1) The electronic state is orbitally nondegenerate
  (2) There are no thermally accessible electronically excited states
  (3) Hindered rotations indicated by low frequency modes are not
      treated as such but are treated as vibrations and this may
      cause some error
  (4) All equations used are the standard statistical mechanics
      equations for an ideal gas
  (5) All vibrations are strictly harmonic

freq.      39.62  E(vib)   ...       0.54 
freq.      61.27  E(vib)   ...       0.51 
freq.      78.00  E(vib)   ...       0.49 
freq.     141.43  E(vib)   ...       0.41 
freq.     196.31  E(vib)   ...       0.36 
freq.     229.69  E(vib)   ...       0.32 
freq.     248.32  E(vib)   ...       0.31 
freq.     313.10  E(vib)   ...       0.25 
freq.     361.16  E(vib)   ...       0.22 
freq.     401.49  E(vib)   ...       0.19 
freq.     443.88  E(vib)   ...       0.17 
freq.     527.07  E(vib)   ...       0.13 
freq.     539.54  E(vib)   ...       0.12 
freq.     552.31  E(vib)   ...       0.12 
freq.     593.47  E(vib)   ...       0.10 
freq.     600.51  E(vib)   ...       0.10 
freq.     661.56  E(vib)   ...       0.08 
freq.     780.73  E(vib)   ...       0.05 
freq.     860.30  E(vib)   ...       0.04 
freq.     881.43  E(vib)   ...       0.04 
freq.     978.03  E(vib)   ...       0.03 
freq.    1072.47  E(vib)   ...       0.02 
freq.    1147.30  E(vib)   ...       0.01 
freq.    1166.30  E(vib)   ...       0.01 
freq.    1173.22  E(vib)   ...       0.01 
freq.    1196.27  E(vib)   ...       0.01 
freq.    1218.08  E(vib)   ...       0.01 
freq.    1250.61  E(vib)   ...       0.01 
freq.    1308.04  E(vib)   ...       0.01 
freq.    1321.13  E(vib)   ...       0.01 
freq.    1329.31  E(vib)   ...       0.01 
freq.    1390.41  E(vib)   ...       0.00 
freq.    1441.54  E(vib)   ...       0.00 
freq.    1464.39  E(vib)   ...       0.00 
freq.    1472.63  E(vib)   ...       0.00 
freq.    3071.64  E(vib)   ...       0.00 
freq.    3087.96  E(vib)   ...       0.00 
freq.    3140.56  E(vib)   ...       0.00 

------------
INNER ENERGY
------------

The inner energy is: U= E(el) + E(ZPE) + E(vib) + E(rot) + E(trans)
    E(el)   - is the total energy from the electronic structure calculation
              = E(kin-el) + E(nuc-el) + E(el-el) + E(nuc-nuc)
    E(ZPE)  - the the zero temperature vibrational energy from the frequency calculation
    E(vib)  - the the finite temperature correction to E(ZPE) due to population
              of excited vibrational states
    E(rot)  - is the rotational thermal energy
    E(trans)- is the translational thermal energy

Summary of contributions to the inner energy U:
Electronic energy                ...   -927.27645891 Eh
Zero point energy                ...      0.08370233 Eh      52.52 kcal/mol
Thermal vibrational correction   ...      0.00748124 Eh       4.69 kcal/mol
Thermal rotational correction    ...      0.00141627 Eh       0.89 kcal/mol
Thermal translational correction ...      0.00141627 Eh       0.89 kcal/mol
-----------------------------------------------------------------------
Total thermal energy                   -927.18244280 Eh


Summary of corrections to the electronic energy:
(perhaps to be used in another calculation)
Total thermal correction                  0.01031378 Eh       6.47 kcal/mol
Non-thermal (ZPE) correction              0.08370233 Eh      52.52 kcal/mol
-----------------------------------------------------------------------
Total correction                          0.09401611 Eh      59.00 kcal/mol


--------
ENTHALPY
--------

The enthalpy is H = U + kB*T
                kB is Boltzmann's constant
Total thermal energy              ...   -927.18244280 Eh 
Thermal Enthalpy correction       ...      0.00094421 Eh       0.59 kcal/mol
-----------------------------------------------------------------------
Total Enthalpy                    ...   -927.18149859 Eh


Note: Only C1 symmetry has been detected, increase convergence thresholds 
      if your molecule has a higher symmetry. Symmetry factor of 1.0 is   
      used for the rotational entropy correction. 
 

Note: Rotational entropy computed according to Herzberg 
Infrared and Raman Spectra, Chapter V,1, Van Nostrand Reinhold, 1945 
Point Group:  C1, Symmetry Number:   1  
Rotational constants in cm-1:     0.063930     0.015040     0.014310 

Vibrational entropy computed according to the QRRHO of S. Grimme
Chem.Eur.J. 2012 18 9955 using a reference frequency of 100.0 cm-1


-------
ENTROPY
-------

The entropy contributions are T*S = T*(S(el)+S(vib)+S(rot)+S(trans))
     S(el)   - electronic entropy
     S(vib)  - vibrational entropy
     S(rot)  - rotational entropy
     S(trans)- translational entropy
The entropies will be listed as multiplied by the temperature to get
units of energy

Electronic entropy                ...      0.00000000 Eh      0.00 kcal/mol
Vibrational entropy               ...      0.01304905 Eh      8.19 kcal/mol
Rotational entropy                ...      0.01479530 Eh      9.28 kcal/mol
Translational entropy             ...      0.01985330 Eh     12.46 kcal/mol
-----------------------------------------------------------------------
Final entropy term                ...      0.04769765 Eh     29.93 kcal/mol

In case the symmetry of your molecule has not been determined correctly
or in case you have a reason to use a different symmetry number we print 
out the resulting rotational entropy values for sn=1,12:

 non-linear molecules -----------------------------------
|  sn= 1 | S(rot)=       0.01479530 Eh      9.28 kcal/mol|
|  sn= 2 | S(rot)=       0.01414084 Eh      8.87 kcal/mol|
|  sn= 3 | S(rot)=       0.01375801 Eh      8.63 kcal/mol|
|  sn= 4 | S(rot)=       0.01348639 Eh      8.46 kcal/mol|
|  sn= 5 | S(rot)=       0.01327570 Eh      8.33 kcal/mol|
|  sn= 6 | S(rot)=       0.01310355 Eh      8.22 kcal/mol|
|  sn= 7 | S(rot)=       0.01295801 Eh      8.13 kcal/mol|
|  sn= 8 | S(rot)=       0.01283193 Eh      8.05 kcal/mol|
|  sn= 9 | S(rot)=       0.01272072 Eh      7.98 kcal/mol|
|  sn=10 | S(rot)=       0.01262124 Eh      7.92 kcal/mol|
|  sn=11 | S(rot)=       0.01253125 Eh      7.86 kcal/mol|
|  sn=12 | S(rot)=       0.01244910 Eh      7.81 kcal/mol|
 linear molecules ---------------------------------------
|  Dinfh | S(rot)=       0.00933553 Eh      5.86 kcal/mol|
|  Cinfv | S(rot)=       0.00998999 Eh      6.27 kcal/mol|
 --------------------------------------------------------


-------------------
GIBBS FREE ENERGY
-------------------

The Gibbs free energy is G = H - T*S

Total enthalpy                    ...   -927.18149859 Eh 
Total entropy correction          ...     -0.04769765 Eh    -29.93 kcal/mol
-----------------------------------------------------------------------
Final Gibbs free energy         ...   -927.22919624 Eh

For completeness - the Gibbs free energy minus the electronic energy
G-E(el)                           ...      0.04726266 Eh     29.66 kcal/mol


Maximum memory used throughout the entire PROP-calculation: 54.8 MB

--------------------------------
SUGGESTED CITATIONS FOR THIS RUN
--------------------------------

Below you find a list of papers that are relevant to this ORCA run
We neither can nor want to force you to cite these papers, but we appreciate if you do
You receive ORCA, which is the product of decades of hard work by many enthusiastic individuals, for free
The only thing we kindly ask in return is that you cite our papers,
We deeply appreciate it, if you show your appreciation for ORCA by not just citing the generic ORCA reference.

Please note that relegating all ORCA citations to the supporting information does *not* help us.
SI sections are not indexed - citations you put there will not count into any citation statistics
But we need these citations in order to attract the funding resources that allow us to do what we are doing

Therefore, if you are a happy ORCA user, please consider citing a few of the papers listed below in the main body of your paper

In addition to the list printed below, the program has created the file TFTFE_C1.bibtex that contains the list in bibtex format
You can import this file easily into all common literature databanks and citation aid programs


List of essential papers. We consider these as the minimum necessary citations

  1. Neese, F.
     Software update: the ORCA program system, version 6.0
     WIRES Comput. Molec. Sci. 2025 15(1), e70019
     doi.org/10.1002/wcms.7019

List of papers to cite with high priority. The work reported in these papers was absolutely
necessary for this run to complete.
Our perspective: the developers of density functionals and basis sets usually get cited in chemistry papers
Good! But without the algorithms to do something with them, the functionals or basis sets would not do anything.
Hence, in our opinion, the algorithm design and method developments papers are equally worthy of getting cited

  1. Neese, F.
     An improvement of the resolution of the identity approximation for the formation of the Coulomb matrix
     J. Comp. Chem. 2003 24(14), 1740-1747
     doi.org/10.1002/jcc.10318
  2. Neese, F.; Wennmohs, F.; Hansen, A.; Becker, U.
     Efficient, approximate and parallel Hartree-Fock and hybrid DFT calculations. A 'chain-of-spheres' algorithm for the Hartree-Fock exchange
     Chem. Phys. 2009 356(1-3), 98-109
     doi.org/10.1016/j.chemphys.2008.10.036
  3. Bykov, D.; Petrenko, T.; Izsak, R.; Kossmann, S.; Becker, U.; Valeev, E.; Neese, F.
     Efficient implementation of the analytic second derivatives of Hartree-Fock and hybrid DFT energies: a detailed analysis of different approximations
     Molec. Phys. 2015 113 , 1961-1977
     doi.org/10.1080/00268976.2015.1025114
  4. Helmich-Paris, B.; de Souza, B.; Neese, F.; Izsák, R.
     An improved chain of spheres for exchange algorithm
     J. Chem. Phys. 2021 155(10), 104109
     doi.org/10.1063/5.0058766
  5. Neese, F.
     The SHARK Integral Generation and Digestion System
     J. Comp. Chem. 2022 44(3), 381
     doi.org/10.1002/jcc.26942

List of suggested additional citations. These are papers that are important in the 'surrounding' of 
of this run, or papers that preceded the highly important papers. If you like your results we are grateful for a citation.

  1. Izsak, R.; Neese, F.
     An overlap fitted chain of spheres exchange method
     J. Chem. Phys. 2011 135 , 144105
     doi.org/10.1063/1.3646921
  2. Izsak, R.; Hansen, A.; Neese, F.
     The resolution of identity and chain of spheres approximations for the LPNO-CCSD singles Fock term
     Molec. Phys. 2012 110 , 2413-2417
     doi.org/10.1080/00268976.2012.687466
  3. Neese, F.
     The ORCA program system
     WIRES Comput. Molec. Sci. 2012 2(1), 73-78
     doi.org/10.1002/wcms.81
  4. Izsak, R.; Neese, F.; Klopper, W.
     Robust fitting techniques in the chain of spheres approximation to the Fock exchange: The role of the complementary space
     J. Chem. Phys. 2013 139 , 
     doi.org/10.1063/1.4819264
  5. Neese, F.
     Software update: the ORCA program system, version 4.0
     WIRES Comput. Molec. Sci. 2018 8(1), 1-6
     doi.org/10.1002/wcms.1327
  6. Neese, F.; Wennmohs, F.; Becker, U.; Riplinger, C.
     The ORCA quantum chemistry program package
     J. Chem. Phys. 2020 152(22), 224108
     doi.org/10.1063/5.0004608
  7. Neese, F.
     Software update: The ORCA program system—Version 5.0
     WIRES Comput. Molec. Sci. 2022 12(1), e1606
     doi.org/10.1002/wcms.1606

List of optional additional citations

  1. Neese, F.
     Approximate second-order SCF convergence for spin unrestricted wavefunctions
     Chem. Phys. Lett. 2000 325(1-3), 93-98
     doi.org/10.1016/s0009-2614(00)00662-x

Timings for individual modules:

Sum of individual times          ...     1653.967 sec (=  27.566 min)
Startup calculation              ...       34.118 sec (=   0.569 min)   2.1 %
SCF iterations                   ...      706.180 sec (=  11.770 min)  42.7 %
Property integrals               ...       72.950 sec (=   1.216 min)   4.4 %
SCF Response                     ...       49.002 sec (=   0.817 min)   3.0 %
Property calculations            ...      209.196 sec (=   3.487 min)  12.6 %
SCF Gradient evaluation          ...      582.445 sec (=   9.707 min)  35.2 %
Geometry relaxation              ...        0.076 sec (=   0.001 min)   0.0 %
                             ****ORCA TERMINATED NORMALLY****
TOTAL RUN TIME: 0 days 0 hours 27 minutes 35 seconds 219 msec
