
                                 *****************
                                 * O   R   C   A *
                                 *****************

                                            #,                                       
                                            ###                                      
                                            ####                                     
                                            #####                                    
                                            ######                                   
                                           ########,                                 
                                     ,,################,,,,,                         
                               ,,#################################,,                 
                          ,,##########################################,,             
                       ,#########################################, ''#####,          
                    ,#############################################,,   '####,        
                  ,##################################################,,,,####,       
                ,###########''''           ''''###############################       
              ,#####''   ,,,,##########,,,,          '''####'''          '####       
            ,##' ,,,,###########################,,,                        '##       
           ' ,,###''''                  '''############,,,                           
         ,,##''                                '''############,,,,        ,,,,,,###''
      ,#''                                            '''#######################'''  
     '                                                          ''''####''''         
             ,#######,   #######,   ,#######,      ##                                
            ,#'     '#,  ##    ##  ,#'     '#,    #''#        ,####,    ,#,          
            ##       ##  ##   ,#'  ##            #'  '#       #'       ,# #          
            ##       ##  #######   ##           ,######,      #####,      #          
            '#,     ,#'  ##    ##  '#,     ,#' ,#      #,     #,   #      #          
             '#######'   ##     ##  '#######'  #'      '#     '####' #    #          



                #########################################################
                #                        -***-                          #
                #          Department of theory and spectroscopy        #
                #                                                       #
                #                      Frank Neese                      #
                #                                                       #
                #     Directorship, Architecture, Infrastructure        #
                #                    SHARK, DRIVERS                     #
                #        Core code/Algorithms in most modules           #
                #                                                       #
                #        Max Planck Institute fuer Kohlenforschung      #
                #                Kaiser Wilhelm Platz 1                 #
                #                 D-45470 Muelheim/Ruhr                 #
                #                      Germany                          #
                #                                                       #
                #                  All rights reserved                  #
                #                        -***-                          #
                #########################################################


                         Program Version 6.1.1  -  RELEASE   -
                                (GIT: $487d211c$)
                          ($2025-11-21 10:33:24 +0100$)


 With contributions from (in alphabetic order):
[Max-Planck-Institut fuer Kohlenforschung]                               
  Daniel Aravena         : Magnetic Suceptibility                        
  Michael Atanasov       : Ab Initio Ligand Field Theory (pilot matlab implementation)
  Alexander A. Auer      : GIAO ZORA, VPT2 properties, NMR spectrum      
  Ute Becker             : All parallelization in ORCA, NUMFREQ, NUMCALC 
  Giovanni Bistoni       : ED, misc. LED, open-shell LED, HFLD           
  Dmytro Bykov           : pre 5.0 version of the SCF Hessian            
  Marcos Casanova-Páez   : Triplet and SCS-CIS(D). UHF-(DLPNO)-IP/EA/STEOM-CCSD. UHF-CVS-IP/STEOM-CCSD   
  Vijay G. Chilkuri      : MRCI spin determinant printing, contributions to CSF-ICE 
  Pauline Colinet        : FMM embedding                                 
  Dipayan Datta          : RHF DLPNO-CCSD density                        
  Achintya Kumar Dutta   : EOM-CC, STEOM-CC                              
  Nicolas Foglia         : Exact transition moments, OPA infrastructure, MCD improvements    
  Dmitry Ganyushin       : Spin-Orbit,Spin-Spin,Magnetic field MRCI      
  Miquel Garcia-Rates    : C-PCM and meta-GGA Hessian, CCSD/C-PCM, Gaussian charge scheme 
  Tiago L. C. Gouveia    : GS-ROHF, GS-ROCIS                             
  Yang Guo               : DLPNO-NEVPT2, F12-NEVPT2, CIM, IAO-localization        
  Andreas Hansen         : Spin unrestricted coupled pair/coupled cluster methods 
  Ingolf Harden          : AUTO-CI MPn and infrastructure                
  Benjamin Helmich-Paris : MC-RPA, TRAH-(SCF,CASSCF), AVAS, COSX integrals, SCF dyn. polar., MC-PDFT, srDFT 
  Lee Huntington         : MR-EOM, pCC                                   
  Robert Izsak           : Overlap fitted RIJCOSX, COSX-SCS-MP3, EOM     
  Riya Kayal             : Wick's Theorem for AUTO-CI, AUTO-CI UHF-CCSDT 
  Emily Kempfer          : AUTO-CI RHF CISDT and CCSDT, approximate NEVPT4
  Christian Kollmar      : KDIIS, OOCD, Brueckner-CCSD(T), CCSD density, CASPT2, CASPT2-K, improved NEVPT2 
  Axel Koslowski         : Symmetry handling                             
  Simone Kossmann        : meta-GGA functionals, TD-DFT gradient, OOMP2, (MP2 Hessian; deprecated post 5.0) 
  Lucas Lang             : DCDCAS, Hyperfine gauge corrections, ICE-SOC+SSC
  Marvin Lechner         : AUTO-CI (C++ implementation), FIC-MRCC        
  Spencer Leger          : CASSCF response                               
  Dagmar Lenk            : GEPOL surface, SMD, ORCA-2-JSON               
  Dimitrios Liakos       : Extrapolation schemes; Compound Job, Property file
  Dimitrios Manganas     : Further ROCIS development; embedding schemes. LFT, Crystal Embedding 
  Dimitrios Pantazis     : SARC Basis sets                               
  Anastasios Papadopoulos: AUTO-CI, single reference methods and gradients 
  Taras Petrenko         : pre 6.0 DFT Hessian and TD-DFT gradient,  ECA, NRVS 
  Petra Pikulova         : Analytic Raman intensities                    
  Peter Pinski           : DLPNO-MP2, DLPNO-MP2 Gradient                 
  Shashank Vittal Rao    : ES-AILFT, MagRelax                            
  Christoph Reimann      : Effective Core Potentials                     
  Marius Retegan         : Local ZFS, SOC                                
  Christoph Riplinger    : Optimizer, TS searches, QM/MM, DLPNO-CCSD(T), (RO)-DLPNO pert. Triples 
  Michael Roemelt        : Original ROCIS implementation, recursive CI coupling coefficients
  Masaaki Saitow         : Open-shell DLPNO-CCSD energy and density      
  Barbara Sandhoefer     : DKH picture change effects                    
  Yorick L. A. Schmerwitz: GMF and freeze-and-release deltaSCF, NEB S-IDPP initial path                    
  Kantharuban Sivalingam : CASSCF convergence/infrastructure, NEVPT2, NEVPT3, NEVPT4(SD), FIC-MRCI and CEPA variants
  Bernardo de Souza      : ESD, SOC TD-DFT                               
  Georgi L. Stoychev     : AutoAux, RI-MP2 NMR, DLPNO-MP2 response, X2C  
  Van Anh Tran           : RI-MP2 g-tensors                              
  Willem Van den Heuvel  : Paramagnetic NMR                              
  Zikuan Wang            : NOTCH, Electric field optimization            
  Frank Wennmohs         : Technical directorship and infrastructure     
  Hang Xu                : AUTO-CI-Response properties                   
                                                                         
[FACCTs GmbH]                                                            
  Markus Bursch, Nicolas Foglia, Miquel Garcia-Rates, Ingolf Harden, Hagen Neugebauer, Anastasios Papadopoulos, 
  Christoph Riplinger, Bernardo de Souza, Georgi L. Stoychev                                                    
                                                                 
  APM, various basis sets, CI-OPT, improved COSX, DLPNO-Multilevel,           
  DOCKER, DRACO, updates on ESD, Fragmentator, GOAT, IRC, LR-CPCM, L-BFGS, MBIS, meta-GGA TD-DFT gradient, ML-optimized integration grids, 
  MM, NACMEs, nearIR, NEB, NEB-TS, NL-DFT gradient (VV10), 2- and 3-layer-ONIOM, interface openCOSMO-RS, QMMM,   
  Crystal-QMMM, RESP, rigid body optimization, SF, symmetry and pop. for TD-DFT, various functionals, SOLVATOR                                   
                                                                         
[Other institutions]                                                     
  V. Asgeirsson          : NEB                                           
  Christoph Bannwarth    : sTDA-DFT, sTD-DFT, PBEh-3c, B97-3c, D3        
  Giovanni Bistoni       : ETS/NOCV, ADLD/ADEX, COVALED                  
  Martin Brehm           : Molecular dynamics                            
  Ronald Cardenas        : ETS/NOCV                                      
  Martina Colucci        : COVALED                                       
  Sebastian Ehlert       : rSCAN, r2SCAN, r2SCAN-3c, D4, dhf basis sets  
  Marvin Friede          : D4 for Fr, Ra, Ac-Lr                          
  Lars Goerigk           : TD-DFT with DH, B97 family of functionals     
  Stefan Grimme          : VdW corrections, initial TS optimization, DFT functionals, gCP, sTDA/sTD-DF 
  Waldemar Hujo          : DFT-NL                                        
  H. Jonsson             : NEB                                           
  Holger Kruse           : gCP                                           
  Marcel Mueller         : wB97X-3c, vDZP basis set                      
  Hagen Neugebauer       : wr2SCAN, Native XTB                           
  Gianluca Regni         : ADLD/ADEX                                     
  Tobias Risthaus        : pre 6.0 range-separated hybrid DFT and stability analysis
  Lukas Wittmann         : regularized MP2, r2SCAN double-hybrids, wr2SCAN        
                                                                         
We gratefully acknowledge several colleagues who have allowed us to      
interface, adapt or use parts of their codes:                            
  Ed Valeev, F. Pavosevic, A. Kumar             : LibInt (2-el integral package), F12 methods 
  Garnet Chan, S. Sharma, J. Yang, R. Olivares  : DMRG                   
  Ulf Ekstrom                                   : XCFun DFT Library      
  Mihaly Kallay                                 : mrcc  (arbitrary order and MRCC methods)
  Frank Weinhold                                : gennbo (NPA and NBO analysis)           
  Simon Mueller                                 : openCOSMO-RS                            
  Christopher J. Cramer and Donald G. Truhlar   : smd solvation model                     
  S Lehtola, MJT Oliveira, MAL Marques          : LibXC Library                           
  Liviu Ungur et al                             : ANISO software                          


 Your calculation uses the libint2 library for the computation of 2-el integrals
 For citations please refer to: http://libint.valeyev.net

 Your ORCA version has been built with support for libXC version: 7.0.0
 For citations please refer to: https://libxc.gitlab.io

 This ORCA versions uses:
   CBLAS   interface :  Fast vector & matrix operations
   LAPACKE interface :  Fast linear algebra routines
   SCALAPACK package :  Parallel linear algebra routines
   Shared memory     :  Shared parallel matrices
   BLAS/LAPACK       :  OpenBLAS 0.3.29  USE64BITINT DYNAMIC_ARCH NO_AFFINITY Cooperlake SINGLE_THREADED
        Core in use  :  Cooperlake
   Copyright (c) 2011-2014, The OpenBLAS Project


  ***********************************
  * Starting time: Thu Feb 19 13:04:10 2026
  * Host name:     Breado
  * Process ID:    17846
  * Working dir.:  /home/bread/other_data/B3LYP_cc-pVTZ
  ***********************************

Warning: RI is on but no J-basis has been assigned. Assigning Def2/J (nothing to worry about!)
================================================================================

----- Orbital basis set information -----
Your calculation utilizes the basis: cc-pVTZ 
       H, B-Ne : Obtained from the ccRepo (grant-hill.group.shef.ac.uk/ccrepo) Feb. 2017
                 T. H. Dunning, Jr., J. Chem. Phys. 90, 1007 (1989)
            He : Obtained from the ccRepo (grant-hill.group.shef.ac.uk/ccrepo) Feb. 2017
                 D. E. Woon, T. H. Dunning, Jr., J. Chem. Phys. 100, 2975 (1994)
  Li-Be, Na-Mg : Obtained from the ccRepo (grant-hill.group.shef.ac.uk/ccrepo) Feb. 2017
                 B. P. Prascher, D. E. Woon, K. A. Peterson, T. H. Dunning, Jr., A. K. Wilson, Theor. Chem. Acc. 128, 69 (2011)
         Al-Ar : Obtained from the ccRepo (grant-hill.group.shef.ac.uk/ccrepo) Feb. 2017
                 D. E. Woon, T. H. Dunning, Jr., J. Chem. Phys. 98, 1358 (1993)
            Ca : Obtained from the Peterson Research Group Website (tyr0.chem.wsu.edu/~kipeters) Feb. 2017
                 J. Koput, K. A. Peterson, J. Phys. Chem. 106, 9595 (2002)
         Sc-Zn : Obtained from the ccRepo (grant-hill.group.shef.ac.uk/ccrepo) Feb. 2017
                 N. B. Balabanov, K. A. Peterson, J. Chem. Phys. 123, 064107 (2005)
                 N. B. Balabanov, K. A. Peterson, J. Chem. Phys. 125, 074110 (2006)
         Ga-Kr : Obtained from the ccRepo (grant-hill.group.shef.ac.uk/ccrepo) Feb. 2017
                 A. K. Wilson, D. E. Woon, K. A. Peterson, T. H. Dunning, Jr., J. Chem. Phys. 110, 7667 (1999)
             Y : Obtained from the ccRepo (grant-hill.group.shef.ac.uk/ccrepo) Feb. 2017
                 K. A. Peterson, D. Figgen, M. Dolg, H. Stoll, J. Chem. Phys. 126, 124101 (2007)
        Ag, Au : Obtained from the Peterson Research Group Website (tyr0.chem.wsu.edu/~kipeters) Feb. 2017
                 K. A. Peterson, C. Puzzarini, Theor. Chem. Acc. 114, 283 (2005)

----- AuxJ basis set information -----
Your calculation utilizes the auxiliary basis: def2/J
   H-Rn: F. Weigend, Phys. Chem. Chem. Phys. 8, 1057 (2006).
   Fr-Lr: K. Eichkorn, F. Weigend, O. Treutler, R. Ahlrichs; Theor. Chem. Acc. 97, 119 (1997).

================================================================================
                                        WARNINGS
                       Please study these warnings very carefully!
================================================================================


WARNING: Geometry Optimization
  ===> : Switching off AutoStart
         For restart on a previous wavefunction, please use MOREAD

================================================================================
                                       INPUT FILE
================================================================================
NAME = HFE_347pcf2_gauche2.inp
|  1> # avogadro generated ORCA input file 
|  2> # Basic Mode
|  3> # 
|  4> ! B3LYP cc-pVTZ OPT FREQ 
|  5> % FREQ TEMP 305, 320, 340 END
|  6> 
|  7> * xyz 0 1
|  8>    F        1.57550       -1.24070        1.22680
|  9>    F        2.24660       -1.31560       -0.85780
| 10>    F        1.24280        1.48160        1.02660
| 11>    F        1.89540        1.41730       -1.04930
| 12>    F       -2.21040        0.58860       -1.24560
| 13>    F       -2.97990        0.67620        0.79360
| 14>    F       -2.55970       -1.25630       -0.13610
| 15>    O        0.13720       -0.61470       -0.40400
| 16>    C        1.49250       -0.61950        0.02550
| 17>    C       -0.71760        0.07520        0.49690
| 18>    C        2.00800        0.78950        0.14680
| 19>    C       -2.13040        0.01840       -0.02340
| 20>    H       -0.53430        1.14710        0.50530
| 21>    H       -0.65750       -0.34600        1.50500
| 22>    H        3.05020        0.82730        0.47350
| 23> *
| 24> 
| 25> 
| 26>                          ****END OF INPUT****
================================================================================

                       *****************************
                       * Geometry Optimization Run *
                       *****************************

Geometry optimization settings:
Update method            Update   .... BFGS
Choice of coordinates    CoordSys .... (2022) Redundant Internals
Initial Hessian          InHess   .... Almloef's Model
Max. no of cycles        MaxIter  .... 50

Convergence Tolerances:
Energy Change            TolE     ....  5.0000e-06 Eh
Max. Gradient            TolMAXG  ....  3.0000e-04 Eh/bohr
RMS Gradient             TolRMSG  ....  1.0000e-04 Eh/bohr
Max. Displacement        TolMAXD  ....  4.0000e-03 bohr
RMS Displacement         TolRMSD  ....  2.0000e-03 bohr
Strict Convergence                .... False

------------------------------------------------------------------------------
                        ORCA OPTIMIZATION COORDINATE SETUP
------------------------------------------------------------------------------

The optimization will be done in redundant internal coordinates (2022)
Making redundant internal coordinates   ...  (2022 redundants) done
Evaluating the initial hessian          ...  (Almloef) done
Evaluating the coordinates              ...  done
Calculating the B-matrix                .... done
Calculating the G-matrix                .... done
The number of degrees of freedom        ....   57

    -----------------------------------------------------------------
                    Redundant Internal Coordinates


    -----------------------------------------------------------------
         Definition                    Initial Value    Approx d2E/dq
    -----------------------------------------------------------------
      1. B(C   8,F   1)                  1.3540         0.593374   
      2. B(C   8,O   7)                  1.4217         0.498017   
      3. B(C   8,F   0)                  1.3550         0.591399   
      4. B(C   9,O   7)                  1.4207         0.499994   
      5. B(C  10,F   3)                  1.3555         0.590144   
      6. B(C  10,C   8)                  1.5052         0.409154   
      7. B(C  10,F   2)                  1.3559         0.589254   
      8. B(C  11,F   6)                  1.3498         0.602785   
      9. B(C  11,F   5)                  1.3498         0.602801   
     10. B(C  11,C   9)                  1.5066         0.407060   
     11. B(C  11,F   4)                  1.3510         0.599970   
     12. B(H  12,C   9)                  1.0875         0.363433   
     13. B(H  13,C   9)                  1.0942         0.354579   
     14. B(H  14,C  10)                  1.0929         0.356337   
     15. A(C   8,O   7,C   9)          112.5596         0.396641   
     16. A(F   1,C   8,C  10)          110.0634         0.395699   
     17. A(F   1,C   8,O   7)          109.6069         0.407012   
     18. A(O   7,C   8,C  10)          110.3438         0.385431   
     19. A(F   0,C   8,C  10)          109.6777         0.395467   
     20. A(F   0,C   8,F   1)          107.9723         0.417779   
     21. A(F   0,C   8,O   7)          109.1341         0.406772   
     22. A(H  12,C   9,H  13)          111.2872         0.290555   
     23. A(C  11,C   9,H  13)          110.8030         0.328098   
     24. A(O   7,C   9,H  13)          111.3620         0.337428   
     25. A(C  11,C   9,H  12)          101.4132         0.329436   
     26. A(O   7,C   9,H  12)          112.4662         0.338819   
     27. A(O   7,C   9,C  11)          109.0818         0.385352   
     28. A(F   3,C  10,H  14)          109.0854         0.345773   
     29. A(F   2,C  10,H  14)          109.0595         0.345685   
     30. A(F   2,C  10,F   3)          106.8137         0.417103   
     31. A(F   3,C  10,C   8)          109.5101         0.395320   
     32. A(C   8,C  10,H  14)          112.5235         0.328644   
     33. A(F   2,C  10,C   8)          109.6825         0.395215   
     34. A(F   4,C  11,C   9)          110.6111         0.396110   
     35. A(F   5,C  11,F   6)          108.0959         0.420381   
     36. A(F   4,C  11,F   6)          107.7105         0.420028   
     37. A(F   4,C  11,F   5)          107.7354         0.420030   
     38. A(F   6,C  11,C   9)          111.2652         0.396436   
     39. A(F   5,C  11,C   9)          111.2705         0.396438   
     40. D(F   1,C   8,O   7,C   9)    178.6391         0.019603   
     41. D(F   0,C   8,O   7,C   9)     60.5858         0.019603   
     42. D(C  10,C   8,O   7,C   9)    -59.9962         0.019603   
     43. D(H  13,C   9,O   7,C   8)    -56.7360         0.019764   
     44. D(H  12,C   9,O   7,C   8)     68.9670         0.019764   
     45. D(C  11,C   9,O   7,C   8)   -179.3401         0.019764   
     46. D(F   2,C  10,C   8,F   0)    -61.7161         0.013263   
     47. D(F   3,C  10,C   8,O   7)    -58.3750         0.013263   
     48. D(F   3,C  10,C   8,F   1)     62.7180         0.013263   
     49. D(F   3,C  10,C   8,F   0)   -178.6309         0.013263   
     50. D(F   2,C  10,C   8,O   7)     58.5397         0.013263   
     51. D(F   2,C  10,C   8,F   1)    179.6328         0.013263   
     52. D(F   4,C  11,C   9,H  13)    177.5026         0.013131   
     53. D(F   4,C  11,C   9,H  12)     59.2803         0.013131   
     54. D(F   4,C  11,C   9,O   7)    -59.5585         0.013131   
     55. D(F   5,C  11,C   9,H  13)     57.7896         0.013131   
     56. D(F   5,C  11,C   9,H  12)    -60.4327         0.013131   
     57. D(F   5,C  11,C   9,O   7)   -179.2715         0.013131   
    -----------------------------------------------------------------

Number of atoms                         .... 15
Number of degrees of freedom            .... 57


         *************************************************************
         *                GEOMETRY OPTIMIZATION CYCLE   1            *
         *************************************************************
---------------------------------
CARTESIAN COORDINATES (ANGSTROEM)
---------------------------------
  F      1.575500   -1.240700    1.226800
  F      2.246600   -1.315600   -0.857800
  F      1.242800    1.481600    1.026600
  F      1.895400    1.417300   -1.049300
  F     -2.210400    0.588600   -1.245600
  F     -2.979900    0.676200    0.793600
  F     -2.559700   -1.256300   -0.136100
  O      0.137200   -0.614700   -0.404000
  C      1.492500   -0.619500    0.025500
  C     -0.717600    0.075200    0.496900
  C      2.008000    0.789500    0.146800
  C     -2.130400    0.018400   -0.023400
  H     -0.534300    1.147100    0.505300
  H     -0.657500   -0.346000    1.505000
  H      3.050200    0.827300    0.473500

----------------------------
CARTESIAN COORDINATES (A.U.)
----------------------------
  NO LB      ZA    FRAG     MASS         X           Y           Z
   0 F     9.0000    0    18.998    2.977264   -2.344583    2.318316
   1 F     9.0000    0    18.998    4.245459   -2.486124   -1.621007
   2 F     9.0000    0    18.998    2.348552    2.799818    1.939993
   3 F     9.0000    0    18.998    3.581787    2.678309   -1.982890
   4 F     9.0000    0    18.998   -4.177051    1.112293   -2.353843
   5 F     9.0000    0    18.998   -5.631195    1.277833    1.499687
   6 F     9.0000    0    18.998   -4.837132   -2.374063   -0.257192
   7 O     8.0000    0    15.999    0.259270   -1.161615   -0.763449
   8 C     6.0000    0    12.011    2.820416   -1.170685    0.048188
   9 C     6.0000    0    12.011   -1.356067    0.142107    0.939005
  10 C     6.0000    0    12.011    3.794570    1.491939    0.277412
  11 C     6.0000    0    12.011   -4.025873    0.034771   -0.044220
  12 H     1.0000    0     1.008   -1.009681    2.167705    0.954879
  13 H     1.0000    0     1.008   -1.242495   -0.653845    2.844038
  14 H     1.0000    0     1.008    5.764043    1.563370    0.894785

--------------------------------
INTERNAL COORDINATES (ANGSTROEM)
--------------------------------
 F      0   0   0     0.000000000000     0.00000000     0.00000000
 F      1   0   0     2.191242200214     0.00000000     0.00000000
 F      1   2   0     2.749852108751    90.09355006     0.00000000
 F      3   1   2     2.177012186461    90.22425874     0.35296628
 F      4   3   1     4.193193415525    75.93372403    85.69446382
 F      5   4   3     2.181316265469   107.08054245     1.33679615
 F      5   4   3     2.180976100282   107.46846186   298.05368267
 O      1   2   3     2.262761925170    61.21614647    62.54808888
 C      2   1   3     1.354046125507    36.02780568   333.74686837
 C      8   1   2     1.420656841042    93.42681437   197.81184094
 C      4   3   1     1.355531928801    36.59961993   332.66665868
 C      6   5   4     1.349755566760    36.15212786   296.82148733
 H     10   8   1     1.087492096523   112.46622839    98.54972767
 H     10   8   1     1.094206132317   111.36200472   332.84681044
 H     11   4   3     1.092859812602   109.08543249   242.25564236

---------------------------
INTERNAL COORDINATES (A.U.)
---------------------------
 F      0   0   0     0.000000000000     0.00000000     0.00000000
 F      1   0   0     4.140847651496     0.00000000     0.00000000
 F      1   2   0     5.196467394324    90.09355006     0.00000000
 F      3   1   2     4.113956822621    90.22425874     0.35296628
 F      4   3   1     7.923987181904    75.93372403    85.69446382
 F      5   4   3     4.122090353204   107.08054245     1.33679615
 F      5   4   3     4.121447534160   107.46846186   298.05368267
 O      1   2   3     4.276000344836    61.21614647    62.54808888
 C      2   1   3     2.558776349905    36.02780568   333.74686837
 C      8   1   2     2.684652359851    93.42681437   197.81184094
 C      4   3   1     2.561584111221    36.59961993   332.66665868
 C      6   5   4     2.550668368912    36.15212786   296.82148733
 H     10   8   1     2.055062235232   112.46622839    98.54972767
 H     10   8   1     2.067749924136   111.36200472   332.84681044
 H     11   4   3     2.065205748586   109.08543249   242.25564236

---------------------
BASIS SET INFORMATION
---------------------
There are 4 groups of distinct atoms

 Group   1 Type F   : 18s5p2d1f contracted to 4s3p2d1f pattern {8811/311/11/1}
 Group   2 Type O   : 18s5p2d1f contracted to 4s3p2d1f pattern {8811/311/11/1}
 Group   3 Type C   : 18s5p2d1f contracted to 4s3p2d1f pattern {8811/311/11/1}
 Group   4 Type H   : 5s2p1d contracted to 3s2p1d pattern {311/11/1}

Atom   0F    basis set group =>   1
Atom   1F    basis set group =>   1
Atom   2F    basis set group =>   1
Atom   3F    basis set group =>   1
Atom   4F    basis set group =>   1
Atom   5F    basis set group =>   1
Atom   6F    basis set group =>   1
Atom   7O    basis set group =>   2
Atom   8C    basis set group =>   3
Atom   9C    basis set group =>   3
Atom  10C    basis set group =>   3
Atom  11C    basis set group =>   3
Atom  12H    basis set group =>   4
Atom  13H    basis set group =>   4
Atom  14H    basis set group =>   4
---------------------------------
AUXILIARY/J BASIS SET INFORMATION
---------------------------------
There are 4 groups of distinct atoms

 Group   1 Type F   : 12s5p4d2f1g contracted to 6s4p3d1f1g pattern {711111/2111/211/2/1}
 Group   2 Type O   : 12s5p4d2f1g contracted to 6s4p3d1f1g pattern {711111/2111/211/2/1}
 Group   3 Type C   : 12s5p4d2f1g contracted to 6s4p3d1f1g pattern {711111/2111/211/2/1}
 Group   4 Type H   : 5s2p1d contracted to 3s1p1d pattern {311/2/1}

Atom   0F    basis set group =>   1
Atom   1F    basis set group =>   1
Atom   2F    basis set group =>   1
Atom   3F    basis set group =>   1
Atom   4F    basis set group =>   1
Atom   5F    basis set group =>   1
Atom   6F    basis set group =>   1
Atom   7O    basis set group =>   2
Atom   8C    basis set group =>   3
Atom   9C    basis set group =>   3
Atom  10C    basis set group =>   3
Atom  11C    basis set group =>   3
Atom  12H    basis set group =>   4
Atom  13H    basis set group =>   4
Atom  14H    basis set group =>   4
------------------------------------------------------------------------------
                             ORCA STARTUP CALCULATIONS
                           -- RI-GTO INTEGRALS CHOSEN --
------------------------------------------------------------------------------
------------------------------------------------------------------------------
                   ___                                                        
                  /   \      - P O W E R E D   B Y -                         
                 /     \                                                     
                 |  |  |   _    _      __       _____    __    __             
                 |  |  |  | |  | |    /  \     |  _  \  |  |  /  |          
                  \  \/   | |  | |   /    \    | | | |  |  | /  /          
                 / \  \   | |__| |  /  /\  \   | |_| |  |  |/  /          
                |  |  |   |  __  | /  /__\  \  |    /   |      \           
                |  |  |   | |  | | |   __   |  |    \   |  |\   \          
                \     /   | |  | | |  |  |  |  | |\  \  |  | \   \       
                 \___/    |_|  |_| |__|  |__|  |_| \__\ |__|  \__/        
                                                                              
                      - O R C A' S   B I G   F R I E N D -                    
                                      &                                       
                       - I N T E G R A L  F E E D E R -                       
                                                                              
 v1 FN, 2020, v2 2021, v3 2022-2024                                           
------------------------------------------------------------------------------


----------------------
SHARK INTEGRAL PACKAGE
----------------------

Number of atoms                             ...     15
Number of basis functions                   ...    474
Number of shells                            ...    210
Maximum angular momentum                    ...      3
Integral batch strategy                     ... SHARK/LIBINT Hybrid
RI-J (if used) integral strategy            ... SPLIT-RIJ (Revised 2003 algorithm where possible)
Printlevel                                  ...      1
Contraction scheme used                     ... PARTIAL GENERAL contraction
Prescreening option                         ... SCHWARTZ
   Thresh                                   ... 2.500e-11
   Tcut                                     ... 2.500e-12
   Tpresel                                  ... 2.500e-12 
Coulomb Range Separation                    ... NOT USED
Exchange Range Separation                   ... NOT USED
Multipole approximations                    ... NOT USED
Finite Nucleus Model                        ... NOT USED
CABS basis                                  ... NOT available
Auxiliary Coulomb fitting basis             ... AVAILABLE
   # of basis functions in Aux-J            ...    621
   # of shells in Aux-J                     ...    195
   Maximum angular momentum in Aux-J        ...      4
Auxiliary J/K fitting basis                 ... NOT available
Auxiliary Correlation fitting basis         ... NOT available
Auxiliary 'external' fitting basis          ... NOT available

Checking pre-screening integrals            ... done (  0.0 sec) Dimension = 210
Save PGC pre-screening integrals            ... done (  0.0 sec) Dimension = 210
Calculate PGC overlap integrals             ... done (  0.1 sec) Dimension = 138
Calculating pre-screening integrals (ORCA)  ... done (  0.2 sec) Dimension = 138
Shell pair information
Shell pair cut-off parameter TPreSel        ...   2.5e-12
Total number of shell pairs                 ...     22155
Shell pairs after pre-screening             ...     13598
Total number of primitive shell pairs       ...     28965
Primitive shell pairs kept                  ...     16452
          la=0 lb=0:   3789 shell pairs
          la=1 lb=0:   3951 shell pairs
          la=1 lb=1:    795 shell pairs
          la=2 lb=0:   2223 shell pairs
          la=2 lb=1:    955 shell pairs
          la=2 lb=2:    298 shell pairs
          la=3 lb=0:    870 shell pairs
          la=3 lb=1:    418 shell pairs
          la=3 lb=2:    242 shell pairs
          la=3 lb=3:     57 shell pairs

Checking whether 4 symmetric matrices of dimension 474 fit in memory
:Max Core in MB      =   4096.00
 MB in use           =     17.99
 MB left             =   4078.01
 MB needed           =      3.44
 Data fit in memory  = YES
Calculating RI/J V-Matrix + Cholesky decomp.... done (  0.1 sec)
Calculating Nuclear repulsion               ... done (  0.0 sec) ENN=    863.221943248253 Eh

Diagonalization of the overlap matrix:
Smallest eigenvalue                        ... 7.216e-04
Time for diagonalization                   ...    0.034 sec
Threshold for overlap eigenvalues          ... 1.000e-07
Number of eigenvalues below threshold      ... 0
Time for construction of square roots      ...    0.015 sec
Total time needed                          ...    0.051 sec

-------------------
DFT GRID GENERATION
-------------------

General Integration Accuracy     IntAcc      ... 4.388
Radial Grid Type                 RadialGrid  ... OptM3 with GC (2021)
Angular Grid (max. ang.)         AngularGrid ... 4 (Lebedev-302)
Angular grid pruning method      GridPruning ... 4 (adaptive)
Weight generation scheme         WeightScheme... mBecke (2022)
Basis function cutoff            BFCut       ... 1.0000e-11
Integration weight cutoff        WCut        ... 1.0000e-14
Partially contracted basis set               ... off
Rotationally invariant grid construction     ... off
Angular grids for H and He will be reduced by one unit

Total number of grid points                  ...    82475
Total number of batches                      ...     1298
Average number of points per batch           ...       63
Average number of grid points per atom       ...     5498

---------------------
SHARK GRID GENERATION
---------------------

General Integration Accuracy     IntAcc      ... 4.388
Radial Grid Type                 RadialGrid  ... OptM3 with GC (2021)
Angular Grid (max. ang.)         AngularGrid ... 4 (Lebedev-302)
Angular grid pruning method      GridPruning ... 4 (adaptive)
Weight generation scheme         WeightScheme... mBecke (2022)
Basis function cutoff            BFCut       ... 1.0000e-11
Integration weight cutoff        WCut        ... 1.0000e-14
Partially contracted basis set               ... off
Rotationally invariant grid construction     ... off
Angular grids for H and He will be reduced by one unit
Steep s-basis detected: some atoms will have their radial
                        grid points doubled.

Total number of grid points                  ...   156292
Total number of batches                      ...     2453
Average number of points per batch           ...       63
Average number of grid points per atom       ...    10419

--------------------
COSX GRID GENERATION
--------------------

GRIDX 1
-------
General Integration Accuracy     IntAcc      ... 3.816
Radial Grid Type                 RadialGrid  ... OptM3 with GC (2021)
Angular Grid (max. ang.)         AngularGrid ... 1 (Lebedev-50)
Angular grid pruning method      GridPruning ... 4 (adaptive)
Weight generation scheme         WeightScheme... mBecke (2022)
Basis function cutoff            BFCut       ... 1.0000e-11
Integration weight cutoff        WCut        ... 1.0000e-14
Partially contracted basis set               ... on
Rotationally invariant grid construction     ... off
Angular grids for H and He will be reduced by one unit

Total number of grid points                  ...    10421
Total number of batches                      ...       90
Average number of points per batch           ...      115
Average number of grid points per atom       ...      695
UseSFitting                                  ... on

GRIDX 2
-------
General Integration Accuracy     IntAcc      ... 4.020
Radial Grid Type                 RadialGrid  ... OptM3 with GC (2021)
Angular Grid (max. ang.)         AngularGrid ... 2 (Lebedev-110)
Angular grid pruning method      GridPruning ... 4 (adaptive)
Weight generation scheme         WeightScheme... mBecke (2022)
Basis function cutoff            BFCut       ... 1.0000e-11
Integration weight cutoff        WCut        ... 1.0000e-14
Partially contracted basis set               ... on
Rotationally invariant grid construction     ... off
Angular grids for H and He will be reduced by one unit

Total number of grid points                  ...    24152
Total number of batches                      ...      198
Average number of points per batch           ...      121
Average number of grid points per atom       ...     1610
UseSFitting                                  ... on

GRIDX 3
-------
General Integration Accuracy     IntAcc      ... 4.338
Radial Grid Type                 RadialGrid  ... OptM3 with GC (2021)
Angular Grid (max. ang.)         AngularGrid ... 3 (Lebedev-194)
Angular grid pruning method      GridPruning ... 4 (adaptive)
Weight generation scheme         WeightScheme... mBecke (2022)
Basis function cutoff            BFCut       ... 1.0000e-11
Integration weight cutoff        WCut        ... 1.0000e-14
Partially contracted basis set               ... on
Rotationally invariant grid construction     ... off
Angular grids for H and He will be reduced by one unit

Total number of grid points                  ...    53395
Total number of batches                      ...      424
Average number of points per batch           ...      125
Average number of grid points per atom       ...     3560
UseSFitting                                  ... on
Grids setup in   5.9 sec
Initializing property integral containers    ... done (  0.0 sec)

SHARK setup successfully completed in   6.7 seconds

Maximum memory used throughout the entire STARTUP-calculation: 81.0 MB
-------------------------------------------------------------------------------
                                 ORCA GUESS
                   Start orbitals & Density for SCF / CASSCF
-------------------------------------------------------------------------------

------------
SCF SETTINGS
------------
Hamiltonian:
 Density Functional     Method          .... DFT(GTOs)
 Exchange Functional    Exchange        .... B88
   X-Alpha parameter    XAlpha          ....  0.666667
   Becke's b parameter  XBeta           ....  0.004200
 Correlation Functional Correlation     .... LYP
 LDA part of GGA corr.  LDAOpt          .... VWN-5
 Gradients option       PostSCFGGA      .... off
 Hybrid DFT is turned on
   Fraction HF Exchange ScalHFX         ....  0.200000
   Scaling of DF-GGA-X  ScalDFX         ....  0.720000
   Scaling of DF-GGA-C  ScalDFC         ....  0.810000
   Scaling of DF-LDA-C  ScalLDAC        ....  1.000000
   Perturbative correction              ....  0.000000
   NL short-range parameter             ....  4.800000
 RI-approximation to the Coulomb term is turned on
   Number of AuxJ basis functions       .... 621
   RIJ-COSX (HFX calculated with COS-X)).... on


General Settings:
 Integral files         IntName         .... HFE_347pcf2_gauche2
 Hartree-Fock type      HFTyp           .... RHF
 Total Charge           Charge          ....    0
 Multiplicity           Mult            ....    1
 Number of Electrons    NEL             ....   98
 Basis Dimension        Dim             ....  402
 Nuclear Repulsion      ENuc            ....    863.2219432483 Eh

Convergence Acceleration:
 AO-DIIS                CNVDIIS         .... on
   Start iteration      DIISMaxIt       ....    12
   Startup error        DIISStart       ....  0.200000
   # of expansion vecs  DIISMaxEq       ....     5
   Bias factor          DIISBfac        ....   1.050
   Max. coefficient     DIISMaxC        ....  10.000
 MO-DIIS                CNVKDIIS        .... off
 Trust-Rad. Augm. Hess. CNVTRAH         .... auto
   Auto Start mean grad. ratio tolernc. ....  1.125000
   Auto Start start iteration           ....    50
   Auto Start num. interpolation iter.  ....    10
   Max. Number of Micro iterations      ....    24
   Max. Number of Macro iterations      .... Maxiter - #DIIS iter
   Number of Davidson start vectors     ....     2
   Converg. threshold    (grad. norm)   ....   1.000e-05
   Grad. Scal. Fac. for Micro threshold ....   0.100
   Minimum threshold for Micro iter.    ....   1.000e-02
   NR start threshold (gradient norm)   ....   1.000e-04
   Initial trust radius                 ....   0.400
   Minimum AH scaling param. (alpha)    ....   1.000
   Maximum AH scaling param. (alpha)    .... 1000.000
   Quad. conv. algorithm                .... NR
   White noise on init. David. guess    .... on
   Maximum white noise                  ....   0.010
   Pseudo random numbers                .... off
   Inactive MOs                         .... canonical
   Orbital update algorithm             .... Taylor
   Preconditioner                       .... Diag
   Full preconditioner red. dimension   ....   250
 SOSCF                 CNVSOSCF           .... on
   Start iteration     SOSCFMaxIt         ....   150
   Startup grad/error  SOSCFStart         ....  0.003300
   Hessian update      SOSCFHessUp        .... L-BFGS
   Autom. constraints  SOSCFAutoConstrain .... off
 Level Shifting         CNVShift        .... on
   Level shift para.    LevelShift      ....    0.2500
   Turn off err/grad.   ShiftErr        ....    0.0010
 Zerner damping         CNVZerner       .... off
 Static damping         CNVDamp         .... on
   Fraction old density DampFac         ....    0.7000
   Max. Damping (<1)    DampMax         ....    0.9800
   Min. Damping (>=0)   DampMin         ....    0.0000
   Turn off err/grad.   DampErr         ....    0.1000

SCF Procedure:
 Maximum # iterations   MaxIter         ....   125
 SCF integral mode      SCFMode         .... Direct
   Integral package                     .... SHARK and LIBINT hybrid scheme
 Reset frequency        DirectResetFreq ....    20
 Integral Threshold     Thresh          ....  2.500e-11 Eh
 Primitive CutOff       TCut            ....  2.500e-12 Eh

Convergence Tolerance:
 Convergence Check Mode ConvCheckMode   .... Total+1el-Energy
 Convergence forced     ConvForced      .... 0
 Energy Change          TolE            ....  1.000e-08 Eh
 1-El. energy change                    ....  1.000e-05 Eh
 Orbital Gradient       TolG            ....  1.000e-05
 Orbital Rotation angle TolX            ....  1.000e-05
 DIIS Error             TolErr          ....  5.000e-07

------------------------------
INITIAL GUESS: MODEL POTENTIAL
------------------------------
Loading Hartree-Fock densities                     ... done
Calculating cut-offs                               ... done
Initializing the effective Hamiltonian             ... done
Setting up the integral package (SHARK)            ... done
Starting the Coulomb interaction                   ... done (   0.5 sec)
Making the grid                                    ... done (   0.3 sec)
Mapping shells                                     ... done
Starting the XC term evaluation                    ... done (   0.6 sec)
  promolecular density results
     # of electrons  =     97.998127594
     EX              =   -100.082209184
     EC              =     -3.647625724
     EX+EC           =   -103.729834908
Transforming the Hamiltonian                       ... done (   0.0 sec)
Diagonalizing the Hamiltonian                      ... done (   0.0 sec)
Back transforming the eigenvectors                 ... done (   0.0 sec)
Now organizing SCF variables                       ... done
                      ------------------
                      INITIAL GUESS DONE (   1.4 sec)
                      ------------------
             **** ENERGY FILE WAS UPDATED (HFE_347pcf2_gauche2.en.tmp) ****
Finished Guess after   1.6 sec
Maximum memory used throughout the entire GUESS-calculation: 41.5 MB

-------------------------------------------------------------------------------------------
                                      ORCA LEAN-SCF
                              memory conserving SCF solver
-------------------------------------------------------------------------------------------

----------------------------------------D-I-I-S--------------------------------------------
Iteration    Energy (Eh)           Delta-E    RMSDP     MaxDP     DIISErr   Damp  Time(sec)
-------------------------------------------------------------------------------------------
               ***  Starting incremental Fock matrix formation  ***
    1    -928.0975814251410156     0.00e+00  7.65e-04  3.88e-02  2.11e-01  0.700  17.9
    2    -928.2067100075983035    -1.09e-01  4.34e-04  2.18e-02  8.16e-02  0.700   8.5
                               ***Turning on AO-DIIS***
    3    -928.2432767706468439    -3.66e-02  1.33e-04  5.14e-03  2.53e-02  0.700   8.1
    4    -928.2678811210148524    -2.46e-02  2.33e-04  5.87e-03  1.34e-02  0.000   7.7
                              *** Initializing SOSCF ***
---------------------------------------S-O-S-C-F--------------------------------------
Iteration    Energy (Eh)           Delta-E    RMSDP     MaxDP     MaxGrad    Time(sec)
--------------------------------------------------------------------------------------
    5    -928.3243738815440338    -5.65e-02  6.28e-05  3.75e-03  2.63e-03     7.9
               *** Restarting incremental Fock matrix formation ***
    6    -928.3244483538601344    -7.45e-05  2.58e-05  1.17e-03  2.86e-04    18.1
    7    -928.3244470882966652     1.27e-06  9.87e-06  2.50e-04  3.96e-04    13.0
    8    -928.3244551464219967    -8.06e-06  2.22e-06  8.42e-05  3.84e-05    12.1
    9    -928.3244551700920510    -2.37e-08  1.16e-06  3.83e-05  2.31e-05    10.7
   10    -928.3244552313749409    -6.13e-08  4.91e-07  1.76e-05  9.27e-06     9.5
   11    -928.3244552562680383    -2.49e-08  2.51e-07  7.37e-06  8.70e-06     8.9
   12    -928.3244552390460740     1.72e-08  6.28e-08  2.93e-06  7.32e-07     7.9
                  *** Gradient check signals convergence ***

               *****************************************************
               *                     SUCCESS                       *
               *           SCF CONVERGED AFTER  12 CYCLES          *
               *****************************************************

Recomputing exchange energy using gridx3       ... done (   31.569 sec)
Old exchange energy                            :    -20.087534049 Eh
New exchange energy                            :    -20.087590102 Eh
Exchange energy change after final integration :     -0.000056053 Eh
Total energy after final integration           :   -928.324511293 Eh
             **** ENERGY FILE WAS UPDATED (HFE_347pcf2_gauche2.en.tmp) ****

----------------
TOTAL SCF ENERGY
----------------

Total Energy       :       -928.32451129342883 Eh          -25260.99420 eV

Components:
Nuclear Repulsion  :        863.22194324825341 Eh           23489.46326 eV
Electronic Energy  :      -1791.54639848903162 Eh          -48750.45593 eV
One Electron Energy:      -3004.57055891911568 Eh          -81758.52143 eV
Two Electron Energy:       1213.02416043008407 Eh           33008.06550 eV

Virial components:
Potential Energy   :      -1852.05299601540537 Eh          -50396.92415 eV
Kinetic Energy     :        923.72848472197666 Eh           25135.92996 eV
Virial Ratio       :          2.00497551677519

DFT components:
N(Alpha)           :       49.000020755009 electrons
N(Beta)            :       49.000020755009 electrons
N(Total)           :       98.000041510019 electrons
E(X)               :      -80.024502686447 Eh       
E(C)               :       -4.266245944988 Eh       
E(XC)              :      -84.290748631434 Eh       

---------------
SCF CONVERGENCE
---------------

  Last Energy change         ...   -1.7222e-08  Tolerance :   1.0000e-08
  Last MAX-Density change    ...    2.9321e-06  Tolerance :   1.0000e-07
  Last RMS-Density change    ...    6.2810e-08  Tolerance :   5.0000e-09
  Last DIIS Error            ...    2.6319e-03  Tolerance :   5.0000e-07
  Last Orbital Gradient      ...    7.3167e-07  Tolerance :   1.0000e-05
  Last Orbital Rotation      ...    1.0131e-06  Tolerance :   1.0000e-05


----------------
ORBITAL ENERGIES
----------------

  NO   OCC          E(Eh)            E(eV) 
   0   2.0000     -24.739716      -673.2019 
   1   2.0000     -24.737788      -673.1494 
   2   2.0000     -24.736202      -673.1063 
   3   2.0000     -24.727470      -672.8687 
   4   2.0000     -24.725890      -672.8257 
   5   2.0000     -24.717479      -672.5968 
   6   2.0000     -24.714926      -672.5273 
   7   2.0000     -19.199173      -522.4361 
   8   2.0000     -10.433789      -283.9178 
   9   2.0000     -10.432318      -283.8778 
  10   2.0000     -10.380470      -282.4670 
  11   2.0000     -10.265277      -279.3324 
  12   2.0000      -1.318550       -35.8796 
  13   2.0000      -1.317209       -35.8431 
  14   2.0000      -1.297726       -35.3129 
  15   2.0000      -1.251236       -34.0479 
  16   2.0000      -1.238626       -33.7047 
  17   2.0000      -1.234423       -33.5904 
  18   2.0000      -1.228594       -33.4317 
  19   2.0000      -1.096984       -29.8505 
  20   2.0000      -0.824671       -22.4404 
  21   2.0000      -0.785635       -21.3782 
  22   2.0000      -0.698952       -19.0194 
  23   2.0000      -0.676498       -18.4084 
  24   2.0000      -0.630983       -17.1699 
  25   2.0000      -0.620361       -16.8809 
  26   2.0000      -0.617642       -16.8069 
  27   2.0000      -0.602187       -16.3863 
  28   2.0000      -0.597473       -16.2581 
  29   2.0000      -0.583194       -15.8695 
  30   2.0000      -0.572683       -15.5835 
  31   2.0000      -0.555473       -15.1152 
  32   2.0000      -0.507436       -13.8080 
  33   2.0000      -0.494047       -13.4437 
  34   2.0000      -0.479448       -13.0464 
  35   2.0000      -0.475575       -12.9411 
  36   2.0000      -0.474120       -12.9015 
  37   2.0000      -0.470282       -12.7970 
  38   2.0000      -0.466399       -12.6914 
  39   2.0000      -0.453228       -12.3330 
  40   2.0000      -0.444814       -12.1040 
  41   2.0000      -0.438480       -11.9317 
  42   2.0000      -0.435694       -11.8558 
  43   2.0000      -0.431149       -11.7321 
  44   2.0000      -0.426954       -11.6180 
  45   2.0000      -0.418157       -11.3786 
  46   2.0000      -0.402192       -10.9442 
  47   2.0000      -0.367519       -10.0007 
  48   2.0000      -0.329763        -8.9733 
  49   0.0000       0.034417         0.9365 
  50   0.0000       0.036320         0.9883 
  51   0.0000       0.056882         1.5478 
  52   0.0000       0.067743         1.8434 
  53   0.0000       0.068115         1.8535 
  54   0.0000       0.103978         2.8294 
  55   0.0000       0.144653         3.9362 
  56   0.0000       0.164984         4.4894 
  57   0.0000       0.172441         4.6923 
  58   0.0000       0.178278         4.8512 
  59   0.0000       0.180938         4.9236 
*Only the first 10 virtual orbitals were printed.

                    ********************************
                    * MULLIKEN POPULATION ANALYSIS *
                    ********************************

-----------------------
MULLIKEN ATOMIC CHARGES
-----------------------
   0 F :   -0.179658
   1 F :   -0.151731
   2 F :   -0.186561
   3 F :   -0.181591
   4 F :   -0.171625
   5 F :   -0.170862
   6 F :   -0.173245
   7 O :   -0.278001
   8 C :    0.439300
   9 C :   -0.059943
  10 C :    0.299479
  11 C :    0.536487
  12 H :    0.086817
  13 H :    0.101031
  14 H :    0.090102
Sum of atomic charges:    0.0000000

--------------------------------
MULLIKEN REDUCED ORBITAL CHARGES
--------------------------------
  0 F s       :     3.891152  s :     3.891152
      pz      :     1.571185  p :     5.272084
      px      :     1.896247
      py      :     1.804652
      dz2     :     0.005532  d :     0.015664
      dxz     :     0.002491
      dyz     :     0.005585
      dx2y2   :     0.001155
      dxy     :     0.000901
      f0      :     0.000182  f :     0.000758
      f+1     :     0.000084
      f-1     :     0.000303
      f+2     :     0.000102
      f-2     :     0.000067
      f+3     :     0.000008
      f-3     :     0.000012

  1 F s       :     3.888672  s :     3.888672
      pz      :     1.714219  p :     5.246763
      px      :     1.755604
      py      :     1.776939
      dz2     :     0.002335  d :     0.015530
      dxz     :     0.004199
      dyz     :     0.003966
      dx2y2   :     0.002102
      dxy     :     0.002928
      f0      :     0.000080  f :     0.000766
      f+1     :     0.000118
      f-1     :     0.000100
      f+2     :     0.000101
      f-2     :     0.000238
      f+3     :     0.000057
      f-3     :     0.000071

  2 F s       :     3.897320  s :     3.897320
      pz      :     1.734390  p :     5.272951
      px      :     1.755661
      py      :     1.782899
      dz2     :     0.002426  d :     0.015563
      dxz     :     0.003810
      dyz     :     0.003905
      dx2y2   :     0.002607
      dxy     :     0.002815
      f0      :     0.000074  f :     0.000728
      f+1     :     0.000111
      f-1     :     0.000096
      f+2     :     0.000100
      f-2     :     0.000219
      f+3     :     0.000056
      f-3     :     0.000071

  3 F s       :     3.890292  s :     3.890292
      pz      :     1.572308  p :     5.274941
      px      :     1.903242
      py      :     1.799391
      dz2     :     0.005405  d :     0.015611
      dxz     :     0.002606
      dyz     :     0.005613
      dx2y2   :     0.001143
      dxy     :     0.000844
      f0      :     0.000171  f :     0.000747
      f+1     :     0.000083
      f-1     :     0.000300
      f+2     :     0.000105
      f-2     :     0.000067
      f+3     :     0.000008
      f-3     :     0.000012

  4 F s       :     3.886071  s :     3.886071
      pz      :     1.549014  p :     5.269059
      px      :     1.898408
      py      :     1.821638
      dz2     :     0.006164  d :     0.015714
      dxz     :     0.002929
      dyz     :     0.005209
      dx2y2   :     0.000744
      dxy     :     0.000668
      f0      :     0.000206  f :     0.000781
      f+1     :     0.000104
      f-1     :     0.000311
      f+2     :     0.000087
      f-2     :     0.000060
      f+3     :     0.000006
      f-3     :     0.000008

  5 F s       :     3.885789  s :     3.885789
      pz      :     1.748820  p :     5.268823
      px      :     1.722331
      py      :     1.797672
      dz2     :     0.002189  d :     0.015478
      dxz     :     0.004472
      dyz     :     0.003113
      dx2y2   :     0.002273
      dxy     :     0.003430
      f0      :     0.000084  f :     0.000773
      f+1     :     0.000121
      f-1     :     0.000075
      f+2     :     0.000095
      f-2     :     0.000242
      f+3     :     0.000065
      f-3     :     0.000092

  6 F s       :     3.884645  s :     3.884645
      pz      :     1.892269  p :     5.272098
      px      :     1.858037
      py      :     1.521792
      dz2     :     0.002375  d :     0.015720
      dxz     :     0.000512
      dyz     :     0.002731
      dx2y2   :     0.005515
      dxy     :     0.004588
      f0      :     0.000057  f :     0.000781
      f+1     :     0.000025
      f-1     :     0.000155
      f+2     :     0.000066
      f-2     :     0.000042
      f+3     :     0.000233
      f-3     :     0.000204

  7 O s       :     3.747138  s :     3.747138
      pz      :     1.584099  p :     4.492068
      px      :     1.205726
      py      :     1.702244
      dz2     :     0.006034  d :     0.036617
      dxz     :     0.010147
      dyz     :     0.005938
      dx2y2   :     0.008793
      dxy     :     0.005705
      f0      :     0.000224  f :     0.002178
      f+1     :     0.000221
      f-1     :     0.000156
      f+2     :     0.000411
      f-2     :     0.000331
      f+3     :     0.000465
      f-3     :     0.000371

  8 C s       :     2.979179  s :     2.979179
      pz      :     0.630935  p :     2.226081
      px      :     0.735573
      py      :     0.859572
      dz2     :     0.070988  d :     0.320432
      dxz     :     0.077992
      dyz     :     0.053481
      dx2y2   :     0.052920
      dxy     :     0.065050
      f0      :     0.006148  f :     0.035008
      f+1     :     0.006328
      f-1     :     0.004635
      f+2     :     0.005991
      f-2     :     0.004680
      f+3     :     0.002981
      f-3     :     0.004246

  9 C s       :     3.213102  s :     3.213102
      pz      :     0.900582  p :     2.734392
      px      :     0.856046
      py      :     0.977763
      dz2     :     0.024163  d :     0.102201
      dxz     :     0.019611
      dyz     :     0.014913
      dx2y2   :     0.030615
      dxy     :     0.012900
      f0      :     0.001146  f :     0.010248
      f+1     :     0.001616
      f-1     :     0.001433
      f+2     :     0.002270
      f-2     :     0.001276
      f+3     :     0.001687
      f-3     :     0.000819

 10 C s       :     3.085633  s :     3.085633
      pz      :     0.621162  p :     2.366083
      px      :     0.918591
      py      :     0.826330
      dz2     :     0.060502  d :     0.221944
      dxz     :     0.046674
      dyz     :     0.047508
      dx2y2   :     0.042166
      dxy     :     0.025094
      f0      :     0.005322  f :     0.026860
      f+1     :     0.004628
      f-1     :     0.004409
      f+2     :     0.004554
      f-2     :     0.003945
      f+3     :     0.002128
      f-3     :     0.001874

 11 C s       :     2.910818  s :     2.910818
      pz      :     0.669105  p :     2.179066
      px      :     0.871397
      py      :     0.638565
      dz2     :     0.070854  d :     0.332209
      dxz     :     0.057575
      dyz     :     0.077153
      dx2y2   :     0.059488
      dxy     :     0.067140
      f0      :     0.007173  f :     0.041419
      f+1     :     0.006046
      f-1     :     0.005830
      f+2     :     0.006425
      f-2     :     0.005183
      f+3     :     0.004984
      f-3     :     0.005778

 12 H s       :     0.874615  s :     0.874615
      pz      :     0.009787  p :     0.035542
      px      :     0.014202
      py      :     0.011552
      dz2     :     0.000277  d :     0.003026
      dxz     :     0.000115
      dyz     :     0.000890
      dx2y2   :     0.000747
      dxy     :     0.000997

 13 H s       :     0.864220  s :     0.864220
      pz      :     0.012863  p :     0.032012
      px      :     0.010368
      py      :     0.008780
      dz2     :     0.000866  d :     0.002737
      dxz     :     0.000963
      dyz     :     0.000546
      dx2y2   :     0.000215
      dxy     :     0.000147

 14 H s       :     0.874503  s :     0.874503
      pz      :     0.006290  p :     0.032753
      px      :     0.017030
      py      :     0.009433
      dz2     :     0.000339  d :     0.002642
      dxz     :     0.000671
      dyz     :     0.000085
      dx2y2   :     0.000592
      dxy     :     0.000955



                     *******************************
                     * LOEWDIN POPULATION ANALYSIS *
                     *******************************

----------------------
LOEWDIN ATOMIC CHARGES
----------------------
   0 F :    0.244806
   1 F :    0.257826
   2 F :    0.271504
   3 F :    0.241132
   4 F :    0.242189
   5 F :    0.244399
   6 F :    0.239673
   7 O :    0.327275
   8 C :   -0.688874
   9 C :   -0.097000
  10 C :   -0.421381
  11 C :   -0.754668
  12 H :   -0.052773
  13 H :   -0.024508
  14 H :   -0.029601

-------------------------------
LOEWDIN REDUCED ORBITAL CHARGES
-------------------------------
  0 F s       :     3.586329  s :     3.586329
      pz      :     1.586780  p :     5.138454
      px      :     1.810459
      py      :     1.741215
      dz2     :     0.010181  d :     0.028987
      dxz     :     0.004939
      dyz     :     0.010627
      dx2y2   :     0.001985
      dxy     :     0.001255
      f0      :     0.000362  f :     0.001423
      f+1     :     0.000208
      f-1     :     0.000463
      f+2     :     0.000202
      f-2     :     0.000146
      f+3     :     0.000015
      f-3     :     0.000027

  1 F s       :     3.587442  s :     3.587442
      pz      :     1.687572  p :     5.125306
      px      :     1.715152
      py      :     1.722582
      dz2     :     0.003963  d :     0.028027
      dxz     :     0.007496
      dyz     :     0.007347
      dx2y2   :     0.004038
      dxy     :     0.005184
      f0      :     0.000158  f :     0.001398
      f+1     :     0.000222
      f-1     :     0.000169
      f+2     :     0.000238
      f-2     :     0.000361
      f+3     :     0.000114
      f-3     :     0.000135

  2 F s       :     3.576642  s :     3.576642
      pz      :     1.697595  p :     5.121186
      px      :     1.699300
      py      :     1.724291
      dz2     :     0.004705  d :     0.029263
      dxz     :     0.006984
      dyz     :     0.007122
      dx2y2   :     0.005330
      dxy     :     0.005123
      f0      :     0.000163  f :     0.001405
      f+1     :     0.000220
      f-1     :     0.000174
      f+2     :     0.000264
      f-2     :     0.000308
      f+3     :     0.000126
      f-3     :     0.000148

  3 F s       :     3.586510  s :     3.586510
      pz      :     1.580962  p :     5.142259
      px      :     1.824215
      py      :     1.737081
      dz2     :     0.009490  d :     0.028706
      dxz     :     0.005820
      dyz     :     0.009793
      dx2y2   :     0.002092
      dxy     :     0.001511
      f0      :     0.000335  f :     0.001393
      f+1     :     0.000229
      f-1     :     0.000425
      f+2     :     0.000207
      f-2     :     0.000154
      f+3     :     0.000014
      f-3     :     0.000029

  4 F s       :     3.587813  s :     3.587813
      pz      :     1.566121  p :     5.140220
      px      :     1.813538
      py      :     1.760561
      dz2     :     0.010953  d :     0.028345
      dxz     :     0.005793
      dyz     :     0.009042
      dx2y2   :     0.001382
      dxy     :     0.001177
      f0      :     0.000370  f :     0.001433
      f+1     :     0.000260
      f-1     :     0.000470
      f+2     :     0.000166
      f-2     :     0.000139
      f+3     :     0.000010
      f-3     :     0.000017

  5 F s       :     3.586922  s :     3.586922
      pz      :     1.711627  p :     5.139116
      px      :     1.682254
      py      :     1.745234
      dz2     :     0.004294  d :     0.028146
      dxz     :     0.008080
      dyz     :     0.005638
      dx2y2   :     0.004130
      dxy     :     0.006003
      f0      :     0.000159  f :     0.001418
      f+1     :     0.000245
      f-1     :     0.000138
      f+2     :     0.000205
      f-2     :     0.000369
      f+3     :     0.000129
      f-3     :     0.000173

  6 F s       :     3.587152  s :     3.587152
      pz      :     1.810293  p :     5.143197
      px      :     1.784112
      py      :     1.548791
      dz2     :     0.004048  d :     0.028532
      dxz     :     0.000729
      dyz     :     0.004758
      dx2y2   :     0.010053
      dxy     :     0.008943
      f0      :     0.000132  f :     0.001447
      f+1     :     0.000046
      f-1     :     0.000230
      f+2     :     0.000151
      f-2     :     0.000084
      f+3     :     0.000402
      f-3     :     0.000401

  7 O s       :     3.260023  s :     3.260023
      pz      :     1.521160  p :     4.313092
      px      :     1.206290
      py      :     1.585642
      dz2     :     0.015758  d :     0.093801
      dxz     :     0.023971
      dyz     :     0.010479
      dx2y2   :     0.026753
      dxy     :     0.016840
      f0      :     0.000652  f :     0.005810
      f+1     :     0.000917
      f-1     :     0.000357
      f+2     :     0.001267
      f-2     :     0.000772
      f+3     :     0.000946
      f-3     :     0.000899

  8 C s       :     2.761203  s :     2.761203
      pz      :     0.778707  p :     2.578743
      px      :     0.849072
      py      :     0.950964
      dz2     :     0.247838  d :     1.126166
      dxz     :     0.241434
      dyz     :     0.217872
      dx2y2   :     0.217199
      dxy     :     0.201823
      f0      :     0.037522  f :     0.222762
      f+1     :     0.037053
      f-1     :     0.033480
      f+2     :     0.036594
      f-2     :     0.032948
      f+3     :     0.019415
      f-3     :     0.025750

  9 C s       :     2.695905  s :     2.695905
      pz      :     0.926221  p :     2.793549
      px      :     0.889321
      py      :     0.978007
      dz2     :     0.129769  d :     0.533475
      dxz     :     0.104645
      dyz     :     0.080585
      dx2y2   :     0.143683
      dxy     :     0.074793
      f0      :     0.006733  f :     0.074071
      f+1     :     0.012760
      f-1     :     0.009452
      f+2     :     0.013179
      f-2     :     0.013331
      f+3     :     0.010338
      f-3     :     0.008278

 10 C s       :     2.747839  s :     2.747839
      pz      :     0.742866  p :     2.611289
      px      :     0.960628
      py      :     0.907795
      dz2     :     0.217500  d :     0.887189
      dxz     :     0.175249
      dyz     :     0.202706
      dx2y2   :     0.177981
      dxy     :     0.113753
      f0      :     0.031770  f :     0.175064
      f+1     :     0.026675
      f-1     :     0.033990
      f+2     :     0.026360
      f-2     :     0.031180
      f+3     :     0.013053
      f-3     :     0.012037

 11 C s       :     2.764403  s :     2.764403
      pz      :     0.805279  p :     2.549112
      px      :     0.955291
      py      :     0.788542
      dz2     :     0.249431  d :     1.182835
      dxz     :     0.215640
      dyz     :     0.257284
      dx2y2   :     0.243303
      dxy     :     0.217177
      f0      :     0.042196  f :     0.258318
      f+1     :     0.035328
      f-1     :     0.041870
      f+2     :     0.034898
      f-2     :     0.036635
      f+3     :     0.031616
      f-3     :     0.035776

 12 H s       :     0.832493  s :     0.832493
      pz      :     0.037921  p :     0.186733
      px      :     0.059408
      py      :     0.089405
      dz2     :     0.003087  d :     0.033547
      dxz     :     0.000876
      dyz     :     0.009017
      dx2y2   :     0.011253
      dxy     :     0.009313

 13 H s       :     0.842765  s :     0.842765
      pz      :     0.074422  p :     0.152449
      px      :     0.035277
      py      :     0.042751
      dz2     :     0.010581  d :     0.029294
      dxz     :     0.007640
      dyz     :     0.008232
      dx2y2   :     0.001793
      dxy     :     0.001048

 14 H s       :     0.858104  s :     0.858104
      pz      :     0.028218  p :     0.143283
      px      :     0.085527
      py      :     0.029538
      dz2     :     0.003427  d :     0.028213
      dxz     :     0.007485
      dyz     :     0.000805
      dx2y2   :     0.008805
      dxy     :     0.007691



                      *****************************
                      * MAYER POPULATION ANALYSIS *
                      *****************************

  NA   - Mulliken gross atomic population
  ZA   - Total nuclear charge
  QA   - Mulliken gross atomic charge
  VA   - Mayer's total valence
  BVA  - Mayer's bonded valence
  FA   - Mayer's free valence

  ATOM       NA         ZA         QA         VA         BVA        FA
  0 F      9.1797     9.0000    -0.1797     1.1892     1.1892    -0.0000
  1 F      9.1517     9.0000    -0.1517     1.2381     1.2381    -0.0000
  2 F      9.1866     9.0000    -0.1866     1.1693     1.1693    -0.0000
  3 F      9.1816     9.0000    -0.1816     1.1796     1.1796    -0.0000
  4 F      9.1716     9.0000    -0.1716     1.2091     1.2091     0.0000
  5 F      9.1709     9.0000    -0.1709     1.2084     1.2084    -0.0000
  6 F      9.1732     9.0000    -0.1732     1.2098     1.2098     0.0000
  7 O      8.2780     8.0000    -0.2780     2.1629     2.1629     0.0000
  8 C      5.5607     6.0000     0.4393     4.4402     4.4402    -0.0000
  9 C      6.0599     6.0000    -0.0599     3.8754     3.8754     0.0000
 10 C      5.7005     6.0000     0.2995     4.1602     4.1602     0.0000
 11 C      5.4635     6.0000     0.5365     4.5439     4.5439     0.0000
 12 H      0.9132     1.0000     0.0868     1.0218     1.0218     0.0000
 13 H      0.8990     1.0000     0.1010     1.0069     1.0069     0.0000
 14 H      0.9099     1.0000     0.0901     1.0015     1.0015     0.0000

  Mayer bond orders larger than 0.100000
B(  0-F ,  8-C ) :   1.1170 B(  1-F ,  8-C ) :   1.1963 B(  2-F , 10-C ) :   1.0827 
B(  3-F , 10-C ) :   1.1281 B(  4-F , 11-C ) :   1.1760 B(  5-F , 11-C ) :   1.1626 
B(  6-F , 11-C ) :   1.1821 B(  7-O ,  8-C ) :   1.1228 B(  7-O ,  9-C ) :   0.9679 
B(  8-C , 10-C ) :   0.9434 B(  9-C , 11-C ) :   0.9723 B(  9-C , 12-H ) :   0.9247 
B(  9-C , 13-H ) :   0.9423 B( 10-C , 14-H ) :   0.9629 

-------
TIMINGS
-------

Total SCF time: 0 days 0 hours 2 min 48 sec 

Total time                  ....     168.507 sec
Sum of individual times     ....     162.203 sec  ( 96.3%)

SCF preparation             ....       0.206 sec  (  0.1%)
Fock matrix formation       ....     161.161 sec  ( 95.6%)
  Startup                   ....       0.017 sec  (  0.0% of F)
  Split-RI-J                ....      11.084 sec  (  6.9% of F)
  Chain of spheres X        ....     137.532 sec  ( 85.3% of F)
  XC integration            ....      18.455 sec  ( 11.5% of F)
    XC Preparation          ....       0.000 sec  (  0.0% of XC)
    Basis function eval.    ....       5.381 sec  ( 29.2% of XC)
    Density eval.           ....       4.725 sec  ( 25.6% of XC)
    XC-Functional eval.     ....       0.474 sec  (  2.6% of XC)
    XC-Potential eval.      ....       7.318 sec  ( 39.7% of XC)
Diagonalization             ....       0.000 sec  (  0.0%)
Density matrix formation    ....       0.085 sec  (  0.1%)
Total Energy calculation    ....       0.010 sec  (  0.0%)
Population analysis         ....       0.028 sec  (  0.0%)
Orbital Transformation      ....       0.095 sec  (  0.1%)
Orbital Orthonormalization  ....       0.000 sec  (  0.0%)
DIIS solution               ....       0.331 sec  (  0.2%)
SOSCF solution              ....       0.288 sec  (  0.2%)
Finished LeanSCF after 168.5 sec

Maximum memory used throughout the entire LEANSCF-calculation: 60.9 MB

------------------------------------------------------------------------------
                         ORCA PROPERTY INTEGRAL CALCULATIONS
------------------------------------------------------------------------------

GBWName                                   ... HFE_347pcf2_gauche2.gbw
Number of atoms                           ...     15
Number of basis functions                 ...    474
Max core memory                           ...   4096 MB

Dipole integrals                          ... YES
Quadrupole integrals                      ...  NO
Linear momentum integrals                 ...  NO
Angular momentum integrals                ...  NO
Higher moments length integrals           ...  NO
Higher moments velocity integrals         ...  NO
Kinetic energy integrals                  ...  NO
GIAO right hand sides                     ...  NO
GIAO dipole derivative integrals          ...  NO
SOC integrals                             ...  NO
EPR diamagnetic integrals (GIAO)          ...  NO
EPR gauge integrals                       ...  NO
Field gradient integrals                  ...  NO (   0 nuclei)
Spin-dipole/Fermi contact integrals       ...  NO (   0 nuclei)
Contact density integrals                 ...  NO (   0 nuclei)
Nucleus-orbit integrals                   ...  NO (   0 nuclei)
Geometric perturbations                   ...  NO (  15 nuclei)

Choice of electric origin   ... Center of mass
Position of electric origin ... ( -0.0293,  0.0155, -0.0075) 
Choice of magnetic origin   ... GIAO
Position of magnetic origin ... (  0.0000,  0.0000,  0.0000) 

Calculating integrals                     ... Electric Dipole (Length)     done (  0.0 sec)

Property integrals calculated in   0.1 sec

Maximum memory used throughout the entire PROPINT-calculation: 42.3 MB

-------------------------   --------------------
FINAL SINGLE POINT ENERGY      -928.324511293429
-------------------------   --------------------

------------------------------------------------------------------------------
                         ORCA SCF GRADIENT CALCULATION
------------------------------------------------------------------------------

Nuc. rep. gradient        (SHARK) ... done (  0.0 sec)
HCore & Overlap gradient  (SHARK) ... done (  0.6 sec)
Split-RIJ-J gradient      (SHARK) ... done (  4.5 sec)
COSX-gradient                     ... done ( 70.7 sec)
XC gradient                       ... done (  7.7 sec)

------------------
CARTESIAN GRADIENT
------------------

   1   F   :   -0.005702342   -0.000323597   -0.000572641
   2   F   :    0.013931447   -0.008981548   -0.007823050
   3   F   :   -0.018830191   -0.007677809   -0.012077735
   4   F   :   -0.001783110    0.003550671    0.000373595
   5   F   :    0.001658644    0.001967647   -0.005399098
   6   F   :   -0.006624117    0.002448539    0.001509755
   7   F   :    0.004109137   -0.003881063    0.000477227
   8   O   :   -0.031961532    0.006376401   -0.003264406
   9   C   :    0.036339928    0.015132432    0.013117076
  10   C   :    0.019410230   -0.011135900   -0.001853436
  11   C   :   -0.019402236   -0.018757650    0.004739818
  12   C   :    0.004921874    0.017131692    0.009970137
  13   H   :    0.000273790    0.005918264   -0.002483790
  14   H   :    0.002967025   -0.002516160    0.003364675
  15   H   :    0.000691453    0.000748082   -0.000078128

Difference to translation invariance:
           :   -0.0000000001   -0.0000000000   -0.0000000001

Difference to rotation invariance:
           :    0.0001322299    0.0002198282   -0.0000565652

Norm of the Cartesian gradient     ...    0.0748309813
RMS gradient                       ...    0.0111551441
MAX gradient                       ...    0.0363399282

-------
TIMINGS
-------

Total SCF gradient time     ....       83.475 sec

Densities                   ....       0.004 sec  (  0.0%)
One electron gradient       ....       0.612 sec  (  0.7%)
RI-J Coulomb gradient       ....       4.529 sec  (  5.4%)
COSX gradient               ....      70.664 sec  ( 84.7%)
XC gradient                 ....       7.658 sec  (  9.2%)

Maximum memory used throughout the entire SCFGRAD-calculation: 75.0 MB
------------------------------------------------------------------------------
                         ORCA GEOMETRY RELAXATION STEP
------------------------------------------------------------------------------

Reading the OPT-File                    .... done
Getting information on internals        .... done
Copying old internal coords+grads       .... done
Making the new internal coordinates     .... (2022 redundants) done
Validating the new internal coordinates .... (2022 redundants) done
Calculating the B-matrix                .... done
Calculating the G,G- and P matrices     .... done
Transforming gradient to internals      .... done
Projecting the internal gradient        .... done
Number of atoms                         ....  15
Number of internal coordinates          ....  57
Current Energy                          ....  -928.324511293 Eh
Current gradient norm                   ....     0.074830981 Eh/bohr
Maximum allowed component of the step   ....  0.300
Current trust radius                    ....  0.300
Evaluating the initial hessian          ....  (Almloef) done
Projecting the Hessian                  .... done
Forming the augmented Hessian           .... done
Diagonalizing the augmented Hessian     .... done
Last element of RFO vector              ....  0.898380189
Lowest eigenvalues of augmented Hessian:
 -0.064629519  0.013131389  0.014678506  0.019702160  0.023892247
Length of the computed step             ....  0.488900659
Warning: the length of the step is outside the trust region - taking restricted step instead
The input lambda is                     ....     0.012131
   iter:   5  x=    0.003138  g= 2053.036638 f(x)=     7.732559
   iter:  10  x=   -0.106244  g=    3.543989 f(x)=     0.166932
   iter:  15  x=   -0.205647  g=    0.409597 f(x)=     0.000000
The output lambda is                    ....    -0.205647 (17 iterations)
The final length of the internal step   ....  0.300000000
Converting the step to Cartesian space:
 Initial RMS(Int)=    0.0397359707
Transforming coordinates:
 Iter   0:  RMS(Cart)=    0.2777580945 RMS(Int)=    1.1705827717
 Iter   5:  RMS(Cart)=    0.0000665281 RMS(Int)=    0.0000544465
 Iter  10:  RMS(Cart)=    0.0000000689 RMS(Int)=    0.0000000544
done
Storing new coordinates                 .... done

                                .--------------------.
          ----------------------|Geometry convergence|-------------------------
          Item                value                   Tolerance       Converged
          ---------------------------------------------------------------------
          RMS gradient        0.0205980818            0.0001000000      NO
          MAX gradient        0.0911177462            0.0003000000      NO
          RMS step            0.0397359707            0.0020000000      NO
          MAX step            0.1512861062            0.0040000000      NO
          -------------------------------------------------------------------------
          ........................................................
          Max(Bonds)      0.0299      Max(Angles)    8.67
          Max(Dihed)        4.92      Max(Improp)    0.00
          ---------------------------------------------------------------------

The optimization has not yet converged - more geometry cycles are needed


    ---------------------------------------------------------------------------
                         Redundant Internal Coordinates
                            (Angstroem and degrees)

        Definition                    Value    dE/dq     Step     New-Value
    ----------------------------------------------------------------------------
     1. B(C   8,F   1)                1.3540  0.017476 -0.0116    1.3425   
     2. B(C   8,O   7)                1.4217  0.004361 -0.0033    1.4185   
     3. B(C   8,F   0)                1.3550 -0.000704  0.0005    1.3554   
     4. B(C   9,O   7)                1.4207 -0.007726  0.0058    1.4265   
     5. B(C  10,F   3)                1.3555  0.001462 -0.0010    1.3546   
     6. B(C  10,C   8)                1.5052 -0.034754  0.0299    1.5351   
     7. B(C  10,F   2)                1.3559 -0.001128  0.0008    1.3567   
     8. B(C  11,F   6)                1.3498  0.002320 -0.0015    1.3482   
     9. B(C  11,F   5)                1.3498  0.006273 -0.0041    1.3456   
[...]
freq.     293.65  E(vib)   ...       0.31 
freq.     321.78  E(vib)   ...       0.28 
freq.     357.25  E(vib)   ...       0.26 
freq.     362.08  E(vib)   ...       0.25 
freq.     435.53  E(vib)   ...       0.20 
freq.     511.68  E(vib)   ...       0.16 
freq.     530.99  E(vib)   ...       0.15 
freq.     542.23  E(vib)   ...       0.15 
freq.     574.38  E(vib)   ...       0.13 
freq.     604.66  E(vib)   ...       0.12 
freq.     661.73  E(vib)   ...       0.10 
freq.     704.51  E(vib)   ...       0.09 
freq.     844.88  E(vib)   ...       0.06 
freq.     872.30  E(vib)   ...       0.05 
freq.     973.34  E(vib)   ...       0.04 
freq.    1089.79  E(vib)   ...       0.02 
freq.    1092.69  E(vib)   ...       0.02 
freq.    1123.35  E(vib)   ...       0.02 
freq.    1136.00  E(vib)   ...       0.02 
freq.    1166.53  E(vib)   ...       0.02 
freq.    1188.76  E(vib)   ...       0.02 
freq.    1206.31  E(vib)   ...       0.02 
freq.    1266.92  E(vib)   ...       0.01 
freq.    1307.79  E(vib)   ...       0.01 
freq.    1325.08  E(vib)   ...       0.01 
freq.    1367.12  E(vib)   ...       0.01 
freq.    1410.62  E(vib)   ...       0.01 
freq.    1446.48  E(vib)   ...       0.01 
freq.    1495.98  E(vib)   ...       0.01 
freq.    3071.76  E(vib)   ...       0.00 
freq.    3091.88  E(vib)   ...       0.00 
freq.    3132.21  E(vib)   ...       0.00 

------------
INNER ENERGY
------------

The inner energy is: U= E(el) + E(ZPE) + E(vib) + E(rot) + E(trans)
    E(el)   - is the total energy from the electronic structure calculation
              = E(kin-el) + E(nuc-el) + E(el-el) + E(nuc-nuc)
    E(ZPE)  - the the zero temperature vibrational energy from the frequency calculation
    E(vib)  - the the finite temperature correction to E(ZPE) due to population
              of excited vibrational states
    E(rot)  - is the rotational thermal energy
    E(trans)- is the translational thermal energy

Summary of contributions to the inner energy U:
Electronic energy                ...   -928.34209439 Eh
Zero point energy                ...      0.08267639 Eh      51.88 kcal/mol
Thermal vibrational correction   ...      0.00958487 Eh       6.01 kcal/mol
Thermal rotational correction    ...      0.00152006 Eh       0.95 kcal/mol
Thermal translational correction ...      0.00152006 Eh       0.95 kcal/mol
-----------------------------------------------------------------------
Total thermal energy                   -928.24679300 Eh


Summary of corrections to the electronic energy:
(perhaps to be used in another calculation)
Total thermal correction                  0.01262500 Eh       7.92 kcal/mol
Non-thermal (ZPE) correction              0.08267639 Eh      51.88 kcal/mol
-----------------------------------------------------------------------
Total correction                          0.09530139 Eh      59.80 kcal/mol


--------
ENTHALPY
--------

The enthalpy is H = U + kB*T
                kB is Boltzmann's constant
Total thermal energy              ...   -928.24679300 Eh 
Thermal Enthalpy correction       ...      0.00101341 Eh       0.64 kcal/mol
-----------------------------------------------------------------------
Total Enthalpy                    ...   -928.24577959 Eh


Note: Only C1 symmetry has been detected, increase convergence thresholds 
      if your molecule has a higher symmetry. Symmetry factor of 1.0 is   
      used for the rotational entropy correction. 
 

Note: Rotational entropy computed according to Herzberg 
Infrared and Raman Spectra, Chapter V,1, Van Nostrand Reinhold, 1945 
Point Group:  C1, Symmetry Number:   1  
Rotational constants in cm-1:     0.050773     0.017228     0.016238 

Vibrational entropy computed according to the QRRHO of S. Grimme
Chem.Eur.J. 2012 18 9955 using a reference frequency of 100.0 cm-1


-------
ENTROPY
-------

The entropy contributions are T*S = T*(S(el)+S(vib)+S(rot)+S(trans))
     S(el)   - electronic entropy
     S(vib)  - vibrational entropy
     S(rot)  - rotational entropy
     S(trans)- translational entropy
The entropies will be listed as multiplied by the temperature to get
units of energy

Electronic entropy                ...      0.00000000 Eh      0.00 kcal/mol
Vibrational entropy               ...      0.01731034 Eh     10.86 kcal/mol
Rotational entropy                ...      0.01597097 Eh     10.02 kcal/mol
Translational entropy             ...      0.02148743 Eh     13.48 kcal/mol
-----------------------------------------------------------------------
Final entropy term                ...      0.05476874 Eh     34.37 kcal/mol

In case the symmetry of your molecule has not been determined correctly
or in case you have a reason to use a different symmetry number we print 
out the resulting rotational entropy values for sn=1,12:

 non-linear molecules -----------------------------------
|  sn= 1 | S(rot)=       0.01597097 Eh     10.02 kcal/mol|
|  sn= 2 | S(rot)=       0.01526855 Eh      9.58 kcal/mol|
|  sn= 3 | S(rot)=       0.01485767 Eh      9.32 kcal/mol|
|  sn= 4 | S(rot)=       0.01456614 Eh      9.14 kcal/mol|
|  sn= 5 | S(rot)=       0.01434001 Eh      9.00 kcal/mol|
|  sn= 6 | S(rot)=       0.01415525 Eh      8.88 kcal/mol|
|  sn= 7 | S(rot)=       0.01399904 Eh      8.78 kcal/mol|
|  sn= 8 | S(rot)=       0.01386372 Eh      8.70 kcal/mol|
|  sn= 9 | S(rot)=       0.01374436 Eh      8.62 kcal/mol|
|  sn=10 | S(rot)=       0.01363759 Eh      8.56 kcal/mol|
|  sn=11 | S(rot)=       0.01354100 Eh      8.50 kcal/mol|
|  sn=12 | S(rot)=       0.01345283 Eh      8.44 kcal/mol|
 linear molecules ---------------------------------------
|  Dinfh | S(rot)=       0.00996328 Eh      6.25 kcal/mol|
|  Cinfv | S(rot)=       0.01066569 Eh      6.69 kcal/mol|
 --------------------------------------------------------


-------------------
GIBBS FREE ENERGY
-------------------

The Gibbs free energy is G = H - T*S

Total enthalpy                    ...   -928.24577959 Eh 
Total entropy correction          ...     -0.05476874 Eh    -34.37 kcal/mol
-----------------------------------------------------------------------
Final Gibbs free energy         ...   -928.30054834 Eh

For completeness - the Gibbs free energy minus the electronic energy
G-E(el)                           ...      0.04154605 Eh     26.07 kcal/mol


The first frequency considered to be a vibration is 6
The total number of vibrations considered is 39


--------------------------
THERMOCHEMISTRY AT 340.00K
--------------------------

Temperature         ...   340.00 K
Pressure            ...     1.00 atm
Total Mass          ...   200.05 AMU
Quasi RRHO          ...     True
Cut-Off Frequency   ...     1.00 cm^-1

Throughout the following assumptions are being made:
  (1) The electronic state is orbitally nondegenerate
  (2) There are no thermally accessible electronically excited states
  (3) Hindered rotations indicated by low frequency modes are not
      treated as such but are treated as vibrations and this may
      cause some error
  (4) All equations used are the standard statistical mechanics
      equations for an ideal gas
  (5) All vibrations are strictly harmonic

freq.      25.16  E(vib)   ...       0.64 
freq.      34.20  E(vib)   ...       0.63 
freq.      78.16  E(vib)   ...       0.57 
freq.      88.97  E(vib)   ...       0.56 
freq.     148.62  E(vib)   ...       0.49 
freq.     189.57  E(vib)   ...       0.44 
freq.     215.81  E(vib)   ...       0.41 
freq.     293.65  E(vib)   ...       0.34 
freq.     321.78  E(vib)   ...       0.32 
freq.     357.25  E(vib)   ...       0.29 
freq.     362.08  E(vib)   ...       0.29 
freq.     435.53  E(vib)   ...       0.23 
freq.     511.68  E(vib)   ...       0.19 
freq.     530.99  E(vib)   ...       0.18 
freq.     542.23  E(vib)   ...       0.17 
freq.     574.38  E(vib)   ...       0.16 
freq.     604.66  E(vib)   ...       0.15 
freq.     661.73  E(vib)   ...       0.12 
freq.     704.51  E(vib)   ...       0.11 
freq.     844.88  E(vib)   ...       0.07 
freq.     872.30  E(vib)   ...       0.06 
freq.     973.34  E(vib)   ...       0.05 
freq.    1089.79  E(vib)   ...       0.03 
freq.    1092.69  E(vib)   ...       0.03 
freq.    1123.35  E(vib)   ...       0.03 
freq.    1136.00  E(vib)   ...       0.03 
freq.    1166.53  E(vib)   ...       0.02 
freq.    1188.76  E(vib)   ...       0.02 
freq.    1206.31  E(vib)   ...       0.02 
freq.    1266.92  E(vib)   ...       0.02 
freq.    1307.79  E(vib)   ...       0.01 
freq.    1325.08  E(vib)   ...       0.01 
freq.    1367.12  E(vib)   ...       0.01 
freq.    1410.62  E(vib)   ...       0.01 
freq.    1446.48  E(vib)   ...       0.01 
freq.    1495.98  E(vib)   ...       0.01 
freq.    3071.76  E(vib)   ...       0.00 
freq.    3091.88  E(vib)   ...       0.00 
freq.    3132.21  E(vib)   ...       0.00 

------------
INNER ENERGY
------------

The inner energy is: U= E(el) + E(ZPE) + E(vib) + E(rot) + E(trans)
    E(el)   - is the total energy from the electronic structure calculation
              = E(kin-el) + E(nuc-el) + E(el-el) + E(nuc-nuc)
    E(ZPE)  - the the zero temperature vibrational energy from the frequency calculation
    E(vib)  - the the finite temperature correction to E(ZPE) due to population
              of excited vibrational states
    E(rot)  - is the rotational thermal energy
    E(trans)- is the translational thermal energy

Summary of contributions to the inner energy U:
Electronic energy                ...   -928.34209439 Eh
Zero point energy                ...      0.08267639 Eh      51.88 kcal/mol
Thermal vibrational correction   ...      0.01071820 Eh       6.73 kcal/mol
Thermal rotational correction    ...      0.00161507 Eh       1.01 kcal/mol
Thermal translational correction ...      0.00161507 Eh       1.01 kcal/mol
-----------------------------------------------------------------------
Total thermal energy                   -928.24546967 Eh


Summary of corrections to the electronic energy:
(perhaps to be used in another calculation)
Total thermal correction                  0.01394833 Eh       8.75 kcal/mol
Non-thermal (ZPE) correction              0.08267639 Eh      51.88 kcal/mol
-----------------------------------------------------------------------
Total correction                          0.09662473 Eh      60.63 kcal/mol


--------
ENTHALPY
--------

The enthalpy is H = U + kB*T
                kB is Boltzmann's constant
Total thermal energy              ...   -928.24546967 Eh 
Thermal Enthalpy correction       ...      0.00107674 Eh       0.68 kcal/mol
-----------------------------------------------------------------------
Total Enthalpy                    ...   -928.24439292 Eh


Note: Only C1 symmetry has been detected, increase convergence thresholds 
      if your molecule has a higher symmetry. Symmetry factor of 1.0 is   
      used for the rotational entropy correction. 
 

Note: Rotational entropy computed according to Herzberg 
Infrared and Raman Spectra, Chapter V,1, Van Nostrand Reinhold, 1945 
Point Group:  C1, Symmetry Number:   1  
Rotational constants in cm-1:     0.050773     0.017228     0.016238 

Vibrational entropy computed according to the QRRHO of S. Grimme
Chem.Eur.J. 2012 18 9955 using a reference frequency of 100.0 cm-1


-------
ENTROPY
-------

The entropy contributions are T*S = T*(S(el)+S(vib)+S(rot)+S(trans))
     S(el)   - electronic entropy
     S(vib)  - vibrational entropy
     S(rot)  - rotational entropy
     S(trans)- translational entropy
The entropies will be listed as multiplied by the temperature to get
units of energy

Electronic entropy                ...      0.00000000 Eh      0.00 kcal/mol
Vibrational entropy               ...      0.01944320 Eh     12.20 kcal/mol
Rotational entropy                ...      0.01706707 Eh     10.71 kcal/mol
Translational entropy             ...      0.02299358 Eh     14.43 kcal/mol
-----------------------------------------------------------------------
Final entropy term                ...      0.05950386 Eh     37.34 kcal/mol

In case the symmetry of your molecule has not been determined correctly
or in case you have a reason to use a different symmetry number we print 
out the resulting rotational entropy values for sn=1,12:

 non-linear molecules -----------------------------------
|  sn= 1 | S(rot)=       0.01706707 Eh     10.71 kcal/mol|
|  sn= 2 | S(rot)=       0.01632075 Eh     10.24 kcal/mol|
|  sn= 3 | S(rot)=       0.01588418 Eh      9.97 kcal/mol|
|  sn= 4 | S(rot)=       0.01557443 Eh      9.77 kcal/mol|
|  sn= 5 | S(rot)=       0.01533417 Eh      9.62 kcal/mol|
|  sn= 6 | S(rot)=       0.01513786 Eh      9.50 kcal/mol|
|  sn= 7 | S(rot)=       0.01497189 Eh      9.39 kcal/mol|
|  sn= 8 | S(rot)=       0.01482811 Eh      9.30 kcal/mol|
|  sn= 9 | S(rot)=       0.01470129 Eh      9.23 kcal/mol|
|  sn=10 | S(rot)=       0.01458785 Eh      9.15 kcal/mol|
|  sn=11 | S(rot)=       0.01448523 Eh      9.09 kcal/mol|
|  sn=12 | S(rot)=       0.01439154 Eh      9.03 kcal/mol|
 linear molecules ---------------------------------------
|  Dinfh | S(rot)=       0.01065126 Eh      6.68 kcal/mol|
|  Cinfv | S(rot)=       0.01139757 Eh      7.15 kcal/mol|
 --------------------------------------------------------


-------------------
GIBBS FREE ENERGY
-------------------

The Gibbs free energy is G = H - T*S

Total enthalpy                    ...   -928.24439292 Eh 
Total entropy correction          ...     -0.05950386 Eh    -37.34 kcal/mol
-----------------------------------------------------------------------
Final Gibbs free energy         ...   -928.30389678 Eh

For completeness - the Gibbs free energy minus the electronic energy
G-E(el)                           ...      0.03819761 Eh     23.97 kcal/mol


Maximum memory used throughout the entire PROP-calculation: 140.0 MB

--------------------------------
SUGGESTED CITATIONS FOR THIS RUN
--------------------------------

Below you find a list of papers that are relevant to this ORCA run
We neither can nor want to force you to cite these papers, but we appreciate if you do
You receive ORCA, which is the product of decades of hard work by many enthusiastic individuals, for free
The only thing we kindly ask in return is that you cite our papers,
We deeply appreciate it, if you show your appreciation for ORCA by not just citing the generic ORCA reference.

Please note that relegating all ORCA citations to the supporting information does *not* help us.
SI sections are not indexed - citations you put there will not count into any citation statistics
But we need these citations in order to attract the funding resources that allow us to do what we are doing

Therefore, if you are a happy ORCA user, please consider citing a few of the papers listed below in the main body of your paper

In addition to the list printed below, the program has created the file HFE_347pcf2_gauche2.bibtex that contains the list in bibtex format
You can import this file easily into all common literature databanks and citation aid programs

It goes without saying that in many instances, there are alternative algorithms to achieve similar
results as the ones you have gotten from ORCA. It is, of course, also the case that in some instances
ORCA just re-implements algorithms worked out by others. We are fully aware of that and we are also
fully appreciative of our colleagues work. Hence this citation list should not be read as indicating
that the listed papers, which are focused on our own work, are the only ones worth citing. It simply
meant to make it easier for users to cite ORCA specific papers. It is not a substitute for doing your
own literature research and citing the relevant literature in a scientifically appropriate manner.

List of essential papers. We consider these as the minimum necessary citations

  1. Neese, F.
     Software update: the ORCA program system, version 6.0
     WIRES Comput. Molec. Sci. 2025 15(1), e70019
     doi.org/10.1002/wcms.70019

List of papers to cite with high priority. The work reported in these papers was absolutely
necessary for this run to complete.
Our perspective: the developers of density functionals and basis sets usually get cited in chemistry papers
Good! But without the algorithms to do something with them, the functionals or basis sets would not do anything.
Hence, in our opinion, the algorithm design and method developments papers are equally worthy of getting cited

  1. Neese, F.
     An improvement of the resolution of the identity approximation for the formation of the Coulomb matrix
     J. Comp. Chem. 2003 24(14), 1740-1747
     doi.org/10.1002/jcc.10318
  2. Neese, F.; Wennmohs, F.; Hansen, A.; Becker, U.
     Efficient, approximate and parallel Hartree-Fock and hybrid DFT calculations. A 'chain-of-spheres' algorithm for the Hartree-Fock exchange
     Chem. Phys. 2009 356(1-3), 98-109
     doi.org/10.1016/j.chemphys.2008.10.036
  3. Bykov, D.; Petrenko, T.; Izsak, R.; Kossmann, S.; Becker, U.; Valeev, E.; Neese, F.
     Efficient implementation of the analytic second derivatives of Hartree-Fock and hybrid DFT energies: a detailed analysis of different approximations
     Molec. Phys. 2015 113 , 1961-1977
     doi.org/10.1080/00268976.2015.1025114
  4. Helmich-Paris, B.; de Souza, B.; Neese, F.; Izsák, R.
     An improved chain of spheres for exchange algorithm
     J. Chem. Phys. 2021 155(10), 104109
     doi.org/10.1063/5.0058766
  5. Neese, F.
     The SHARK Integral Generation and Digestion System
     J. Comp. Chem. 2022 44(3), 381
     doi.org/10.1002/jcc.26942

List of suggested additional citations. These are papers that are important in the 'surrounding' of 
of this run, or papers that preceded the highly important papers. If you like your results we are grateful for a citation.

  1. Izsak, R.; Neese, F.
     An overlap fitted chain of spheres exchange method
     J. Chem. Phys. 2011 135 , 144105
     doi.org/10.1063/1.3646921
  2. Izsak, R.; Hansen, A.; Neese, F.
     The resolution of identity and chain of spheres approximations for the LPNO-CCSD singles Fock term
     Molec. Phys. 2012 110 , 2413-2417
     doi.org/10.1080/00268976.2012.687466
  3. Neese, F.
     The ORCA program system
     WIRES Comput. Molec. Sci. 2012 2(1), 73-78
     doi.org/10.1002/wcms.81
  4. Izsak, R.; Neese, F.; Klopper, W.
     Robust fitting techniques in the chain of spheres approximation to the Fock exchange: The role of the complementary space
     J. Chem. Phys. 2013 139 , 
     doi.org/10.1063/1.4819264
  5. Neese, F.
     Software update: the ORCA program system, version 4.0
     WIRES Comput. Molec. Sci. 2018 8(1), 1-6
     doi.org/10.1002/wcms.1327
  6. Neese, F.; Wennmohs, F.; Becker, U.; Riplinger, C.
     The ORCA quantum chemistry program package
     J. Chem. Phys. 2020 152(22), 224108
     doi.org/10.1063/5.0004608
  7. Neese, F.
     Software update: The ORCA program system—Version 5.0
     WIRES Comput. Molec. Sci. 2022 12(1), e1606
     doi.org/10.1002/wcms.1606

List of optional additional citations

  1. Neese, F.
     Approximate second-order SCF convergence for spin unrestricted wavefunctions
     Chem. Phys. Lett. 2000 325(1-3), 93-98
     doi.org/10.1016/s0009-2614(00)00662-x

Timings for individual modules:

Sum of individual times          ...     5112.304 sec (=  85.205 min)
Startup calculation              ...       99.960 sec (=   1.666 min)   2.0 %
SCF iterations                   ...     1894.398 sec (=  31.573 min)  37.1 %
Property integrals               ...      514.727 sec (=   8.579 min)  10.1 %
SCF Response                     ...      387.644 sec (=   6.461 min)   7.6 %
Property calculations            ...     1069.250 sec (=  17.821 min)  20.9 %
SCF Gradient evaluation          ...     1145.869 sec (=  19.098 min)  22.4 %
Geometry relaxation              ...        0.455 sec (=   0.008 min)   0.0 %
                             ****ORCA TERMINATED NORMALLY****
TOTAL RUN TIME: 0 days 1 hours 25 minutes 19 seconds 296 msec
