
                                 *****************
                                 * O   R   C   A *
                                 *****************

                                            #,                                       
                                            ###                                      
                                            ####                                     
                                            #####                                    
                                            ######                                   
                                           ########,                                 
                                     ,,################,,,,,                         
                               ,,#################################,,                 
                          ,,##########################################,,             
                       ,#########################################, ''#####,          
                    ,#############################################,,   '####,        
                  ,##################################################,,,,####,       
                ,###########''''           ''''###############################       
              ,#####''   ,,,,##########,,,,          '''####'''          '####       
            ,##' ,,,,###########################,,,                        '##       
           ' ,,###''''                  '''############,,,                           
         ,,##''                                '''############,,,,        ,,,,,,###''
      ,#''                                            '''#######################'''  
     '                                                          ''''####''''         
             ,#######,   #######,   ,#######,      ##                                
            ,#'     '#,  ##    ##  ,#'     '#,    #''#        ,####,    ,#,          
            ##       ##  ##   ,#'  ##            #'  '#       #'       ,# #          
            ##       ##  #######   ##           ,######,      #####,      #          
            '#,     ,#'  ##    ##  '#,     ,#' ,#      #,     #,   #      #          
             '#######'   ##     ##  '#######'  #'      '#     '####' #    #          



                #########################################################
                #                        -***-                          #
                #          Department of theory and spectroscopy        #
                #                                                       #
                #                      Frank Neese                      #
                #                                                       #
                #     Directorship, Architecture, Infrastructure        #
                #                    SHARK, DRIVERS                     #
                #        Core code/Algorithms in most modules           #
                #                                                       #
                #        Max Planck Institute fuer Kohlenforschung      #
                #                Kaiser Wilhelm Platz 1                 #
                #                 D-45470 Muelheim/Ruhr                 #
                #                      Germany                          #
                #                                                       #
                #                  All rights reserved                  #
                #                        -***-                          #
                #########################################################


                         Program Version 6.1.1  -  RELEASE   -
                                (GIT: $487d211c$)
                          ($2025-11-21 10:33:24 +0100$)


 With contributions from (in alphabetic order):
[Max-Planck-Institut fuer Kohlenforschung]                               
  Daniel Aravena         : Magnetic Suceptibility                        
  Michael Atanasov       : Ab Initio Ligand Field Theory (pilot matlab implementation)
  Alexander A. Auer      : GIAO ZORA, VPT2 properties, NMR spectrum      
  Ute Becker             : All parallelization in ORCA, NUMFREQ, NUMCALC 
  Giovanni Bistoni       : ED, misc. LED, open-shell LED, HFLD           
  Dmytro Bykov           : pre 5.0 version of the SCF Hessian            
  Marcos Casanova-Páez   : Triplet and SCS-CIS(D). UHF-(DLPNO)-IP/EA/STEOM-CCSD. UHF-CVS-IP/STEOM-CCSD   
  Vijay G. Chilkuri      : MRCI spin determinant printing, contributions to CSF-ICE 
  Pauline Colinet        : FMM embedding                                 
  Dipayan Datta          : RHF DLPNO-CCSD density                        
  Achintya Kumar Dutta   : EOM-CC, STEOM-CC                              
  Nicolas Foglia         : Exact transition moments, OPA infrastructure, MCD improvements    
  Dmitry Ganyushin       : Spin-Orbit,Spin-Spin,Magnetic field MRCI      
  Miquel Garcia-Rates    : C-PCM and meta-GGA Hessian, CCSD/C-PCM, Gaussian charge scheme 
  Tiago L. C. Gouveia    : GS-ROHF, GS-ROCIS                             
  Yang Guo               : DLPNO-NEVPT2, F12-NEVPT2, CIM, IAO-localization        
  Andreas Hansen         : Spin unrestricted coupled pair/coupled cluster methods 
  Ingolf Harden          : AUTO-CI MPn and infrastructure                
  Benjamin Helmich-Paris : MC-RPA, TRAH-(SCF,CASSCF), AVAS, COSX integrals, SCF dyn. polar., MC-PDFT, srDFT 
  Lee Huntington         : MR-EOM, pCC                                   
  Robert Izsak           : Overlap fitted RIJCOSX, COSX-SCS-MP3, EOM     
  Riya Kayal             : Wick's Theorem for AUTO-CI, AUTO-CI UHF-CCSDT 
  Emily Kempfer          : AUTO-CI RHF CISDT and CCSDT, approximate NEVPT4
  Christian Kollmar      : KDIIS, OOCD, Brueckner-CCSD(T), CCSD density, CASPT2, CASPT2-K, improved NEVPT2 
  Axel Koslowski         : Symmetry handling                             
  Simone Kossmann        : meta-GGA functionals, TD-DFT gradient, OOMP2, (MP2 Hessian; deprecated post 5.0) 
  Lucas Lang             : DCDCAS, Hyperfine gauge corrections, ICE-SOC+SSC
  Marvin Lechner         : AUTO-CI (C++ implementation), FIC-MRCC        
  Spencer Leger          : CASSCF response                               
  Dagmar Lenk            : GEPOL surface, SMD, ORCA-2-JSON               
  Dimitrios Liakos       : Extrapolation schemes; Compound Job, Property file
  Dimitrios Manganas     : Further ROCIS development; embedding schemes. LFT, Crystal Embedding 
  Dimitrios Pantazis     : SARC Basis sets                               
  Anastasios Papadopoulos: AUTO-CI, single reference methods and gradients 
  Taras Petrenko         : pre 6.0 DFT Hessian and TD-DFT gradient,  ECA, NRVS 
  Petra Pikulova         : Analytic Raman intensities                    
  Peter Pinski           : DLPNO-MP2, DLPNO-MP2 Gradient                 
  Shashank Vittal Rao    : ES-AILFT, MagRelax                            
  Christoph Reimann      : Effective Core Potentials                     
  Marius Retegan         : Local ZFS, SOC                                
  Christoph Riplinger    : Optimizer, TS searches, QM/MM, DLPNO-CCSD(T), (RO)-DLPNO pert. Triples 
  Michael Roemelt        : Original ROCIS implementation, recursive CI coupling coefficients
  Masaaki Saitow         : Open-shell DLPNO-CCSD energy and density      
  Barbara Sandhoefer     : DKH picture change effects                    
  Yorick L. A. Schmerwitz: GMF and freeze-and-release deltaSCF, NEB S-IDPP initial path                    
  Kantharuban Sivalingam : CASSCF convergence/infrastructure, NEVPT2, NEVPT3, NEVPT4(SD), FIC-MRCI and CEPA variants
  Bernardo de Souza      : ESD, SOC TD-DFT                               
  Georgi L. Stoychev     : AutoAux, RI-MP2 NMR, DLPNO-MP2 response, X2C  
  Van Anh Tran           : RI-MP2 g-tensors                              
  Willem Van den Heuvel  : Paramagnetic NMR                              
  Zikuan Wang            : NOTCH, Electric field optimization            
  Frank Wennmohs         : Technical directorship and infrastructure     
  Hang Xu                : AUTO-CI-Response properties                   
                                                                         
[FACCTs GmbH]                                                            
  Markus Bursch, Nicolas Foglia, Miquel Garcia-Rates, Ingolf Harden, Hagen Neugebauer, Anastasios Papadopoulos, 
  Christoph Riplinger, Bernardo de Souza, Georgi L. Stoychev                                                    
                                                                 
  APM, various basis sets, CI-OPT, improved COSX, DLPNO-Multilevel,           
  DOCKER, DRACO, updates on ESD, Fragmentator, GOAT, IRC, LR-CPCM, L-BFGS, MBIS, meta-GGA TD-DFT gradient, ML-optimized integration grids, 
  MM, NACMEs, nearIR, NEB, NEB-TS, NL-DFT gradient (VV10), 2- and 3-layer-ONIOM, interface openCOSMO-RS, QMMM,   
  Crystal-QMMM, RESP, rigid body optimization, SF, symmetry and pop. for TD-DFT, various functionals, SOLVATOR                                   
                                                                         
[Other institutions]                                                     
  V. Asgeirsson          : NEB                                           
  Christoph Bannwarth    : sTDA-DFT, sTD-DFT, PBEh-3c, B97-3c, D3        
  Giovanni Bistoni       : ETS/NOCV, ADLD/ADEX, COVALED                  
  Martin Brehm           : Molecular dynamics                            
  Ronald Cardenas        : ETS/NOCV                                      
  Martina Colucci        : COVALED                                       
  Sebastian Ehlert       : rSCAN, r2SCAN, r2SCAN-3c, D4, dhf basis sets  
  Marvin Friede          : D4 for Fr, Ra, Ac-Lr                          
  Lars Goerigk           : TD-DFT with DH, B97 family of functionals     
  Stefan Grimme          : VdW corrections, initial TS optimization, DFT functionals, gCP, sTDA/sTD-DF 
  Waldemar Hujo          : DFT-NL                                        
  H. Jonsson             : NEB                                           
  Holger Kruse           : gCP                                           
  Marcel Mueller         : wB97X-3c, vDZP basis set                      
  Hagen Neugebauer       : wr2SCAN, Native XTB                           
  Gianluca Regni         : ADLD/ADEX                                     
  Tobias Risthaus        : pre 6.0 range-separated hybrid DFT and stability analysis
  Lukas Wittmann         : regularized MP2, r2SCAN double-hybrids, wr2SCAN        
                                                                         
We gratefully acknowledge several colleagues who have allowed us to      
interface, adapt or use parts of their codes:                            
  Ed Valeev, F. Pavosevic, A. Kumar             : LibInt (2-el integral package), F12 methods 
  Garnet Chan, S. Sharma, J. Yang, R. Olivares  : DMRG                   
  Ulf Ekstrom                                   : XCFun DFT Library      
  Mihaly Kallay                                 : mrcc  (arbitrary order and MRCC methods)
  Frank Weinhold                                : gennbo (NPA and NBO analysis)           
  Simon Mueller                                 : openCOSMO-RS                            
  Christopher J. Cramer and Donald G. Truhlar   : smd solvation model                     
  S Lehtola, MJT Oliveira, MAL Marques          : LibXC Library                           
  Liviu Ungur et al                             : ANISO software                          


 Your calculation uses the libint2 library for the computation of 2-el integrals
 For citations please refer to: http://libint.valeyev.net

 Your ORCA version has been built with support for libXC version: 7.0.0
 For citations please refer to: https://libxc.gitlab.io

 This ORCA versions uses:
   CBLAS   interface :  Fast vector & matrix operations
   LAPACKE interface :  Fast linear algebra routines
   SCALAPACK package :  Parallel linear algebra routines
   Shared memory     :  Shared parallel matrices
   BLAS/LAPACK       :  OpenBLAS 0.3.29  USE64BITINT DYNAMIC_ARCH NO_AFFINITY Cooperlake SINGLE_THREADED
        Core in use  :  Cooperlake
   Copyright (c) 2011-2014, The OpenBLAS Project


  ***********************************
  * Starting time: Tue Feb 17 15:27:49 2026
  * Host name:     Breado
  * Process ID:    6692
  * Working dir.:  /home/bread/other_data/B3LYP_6-311++G3df3pd
  ***********************************

Warning: RI is on but no J-basis has been assigned. Assigning Def2/J (nothing to worry about!)
================================================================================

----- Orbital basis set information -----
Your calculation utilizes the basis: 6-311++G(3df,3pd)
   H, Li - Ne  : R. Krishnan, J. S. Binkley, R. Seeger and J. A. Pople, J. Chem. Phys. 72, 650 (1980).
   Na - Ar     : A. D. McLean and G. S. Chandler J. Chem. Phys. 72, 5639, (1980).
   K  - Ca     : J.-P. Blaudeau, M. P. McGrath, L. A. Curtiss and L. Radom, J. Chem. Phys. 107, 5016 (1997).
   Ga - Kr     : L. A. Curtiss, M. P. McGrath, J.-P. Blandeau, N. E. Davis, R. C. Binning and L. Radom, J. Chem. Phys. 103, 6104 (1995).
   Pol./Diff.
   H, Li - Cl  : T. Clark, J. Chandrasekhar and P. v. R. Schleyer, J. Comp. Chem. 4, 294 (1983).
   H - Ne      : M. J. Frisch, J. A. Pople and J. S. Binkley, J. Chem. Phys. 80, 3265 (1984).

----- AuxJ basis set information -----
Your calculation utilizes the auxiliary basis: def2/J
   H-Rn: F. Weigend, Phys. Chem. Chem. Phys. 8, 1057 (2006).
   Fr-Lr: K. Eichkorn, F. Weigend, O. Treutler, R. Ahlrichs; Theor. Chem. Acc. 97, 119 (1997).

================================================================================
                                        WARNINGS
                       Please study these warnings very carefully!
================================================================================


WARNING: Geometry Optimization
  ===> : Switching off AutoStart
         For restart on a previous wavefunction, please use MOREAD

================================================================================
                                       INPUT FILE
================================================================================
NAME = HFE_347pcf2_gauche1.inp
|  1> # avogadro generated ORCA input file 
|  2> # Basic Mode
|  3> # 
|  4> ! B3LYP 6-311++G(3df,3pd) OPT FREQ 
|  5> % FREQ TEMP 305, 320, 340 END
|  6> 
|  7> * xyz 0 1
|  8>    F        2.03360        0.95850       -1.19810
|  9>    F        1.40780        1.54460        0.81840
| 10>    F        3.14700       -0.57680        0.75040
| 11>    F        1.78880       -1.67110       -0.55230
| 12>    F       -2.75120        1.05380       -0.44060
| 13>    F       -3.13920       -0.46580        1.07550
| 14>    F       -2.38540       -1.04850       -0.89120
| 15>    O       -0.05490        0.42730       -0.50780
| 16>    C        1.30530        0.57550       -0.12160
| 17>    C       -0.88930        0.03820        0.57430
| 18>    C        1.84110       -0.72430        0.41630
| 19>    C       -2.30350       -0.11120        0.07660
| 20>    H       -0.85070        0.79020        1.36930
| 21>    H       -0.60420       -0.93450        0.98000
| 22>    H        1.34190       -1.10100        1.30910
| 23> *
| 24> 
| 25> 
| 26>                          ****END OF INPUT****
================================================================================

                       *****************************
                       * Geometry Optimization Run *
                       *****************************

Geometry optimization settings:
Update method            Update   .... BFGS
Choice of coordinates    CoordSys .... (2022) Redundant Internals
Initial Hessian          InHess   .... Almloef's Model
Max. no of cycles        MaxIter  .... 50

Convergence Tolerances:
Energy Change            TolE     ....  5.0000e-06 Eh
Max. Gradient            TolMAXG  ....  3.0000e-04 Eh/bohr
RMS Gradient             TolRMSG  ....  1.0000e-04 Eh/bohr
Max. Displacement        TolMAXD  ....  4.0000e-03 bohr
RMS Displacement         TolRMSD  ....  2.0000e-03 bohr
Strict Convergence                .... False

------------------------------------------------------------------------------
                        ORCA OPTIMIZATION COORDINATE SETUP
------------------------------------------------------------------------------

The optimization will be done in redundant internal coordinates (2022)
Making redundant internal coordinates   ...  (2022 redundants) done
Evaluating the initial hessian          ...  (Almloef) done
Evaluating the coordinates              ...  done
Calculating the B-matrix                .... done
Calculating the G-matrix                .... done
The number of degrees of freedom        ....   57

    -----------------------------------------------------------------
                    Redundant Internal Coordinates


    -----------------------------------------------------------------
         Definition                    Initial Value    Approx d2E/dq
    -----------------------------------------------------------------
      1. B(C   8,F   1)                  1.3540         0.593519   
      2. B(C   8,O   7)                  1.4217         0.498064   
      3. B(C   8,F   0)                  1.3550         0.591349   
      4. B(C   9,O   7)                  1.4208         0.499802   
      5. B(C  10,F   3)                  1.3555         0.590237   
      6. B(C  10,C   8)                  1.5053         0.409073   
      7. B(C  10,F   2)                  1.3560         0.589116   
      8. B(C  11,F   6)                  1.3498         0.602772   
      9. B(C  11,F   5)                  1.3498         0.602722   
     10. B(C  11,C   9)                  1.5066         0.407038   
     11. B(C  11,F   4)                  1.3510         0.600088   
     12. B(H  12,C   9)                  1.0950         0.353550   
     13. B(H  13,C   9)                  1.0918         0.357731   
     14. B(H  14,C  10)                  1.0900         0.360042   
     15. A(C   8,O   7,C   9)          112.5529         0.396621   
     16. A(F   1,C   8,C  10)          110.0601         0.395702   
     17. A(F   1,C   8,O   7)          109.6106         0.407036   
     18. A(O   7,C   8,C  10)          110.3408         0.385424   
     19. A(F   0,C   8,C  10)          109.6731         0.395448   
     20. A(F   0,C   8,F   1)          107.9727         0.417791   
     21. A(F   0,C   8,O   7)          109.1410         0.406773   
     22. A(H  12,C   9,H  13)          109.4422         0.289702   
     23. A(C  11,C   9,H  13)          106.2311         0.328574   
     24. A(O   7,C   9,H  13)          111.9409         0.337905   
     25. A(C  11,C   9,H  12)          109.9391         0.327938   
     26. A(O   7,C   9,H  12)          110.1320         0.337243   
     27. A(O   7,C   9,C  11)          109.0757         0.385323   
     28. A(F   3,C  10,H  14)          109.0393         0.346384   
     29. A(F   2,C  10,H  14)          106.0711         0.346274   
     30. A(F   2,C  10,F   3)          106.8099         0.417097   
     31. A(F   3,C  10,C   8)          109.5154         0.395317   
     32. A(C   8,C  10,H  14)          115.3455         0.329195   
     33. A(F   2,C  10,C   8)          109.6887         0.395186   
     34. A(F   4,C  11,C   9)          110.6102         0.396120   
     35. A(F   5,C  11,F   6)          108.0967         0.420370   
     36. A(F   4,C  11,F   6)          107.7110         0.420042   
     37. A(F   4,C  11,F   5)          107.7389         0.420035   
     38. A(F   6,C  11,C   9)          111.2641         0.396430   
     39. A(F   5,C  11,C   9)          111.2680         0.396425   
     40. D(F   1,C   8,O   7,C   9)    -61.3572         0.019607   
     41. D(F   0,C   8,O   7,C   9)   -179.4173         0.019607   
     42. D(C  10,C   8,O   7,C   9)     60.0038         0.019607   
     43. D(H  13,C   9,O   7,C   8)    -62.0724         0.019748   
     44. D(H  12,C   9,O   7,C   8)     59.9242         0.019748   
     45. D(C  11,C   9,O   7,C   8)   -179.3399         0.019748   
     46. D(F   2,C  10,C   8,F   0)     58.2858         0.013258   
     47. D(F   3,C  10,C   8,O   7)     61.6286         0.013258   
     48. D(F   3,C  10,C   8,F   1)   -177.2779         0.013258   
     49. D(F   3,C  10,C   8,F   0)    -58.6311         0.013258   
     50. D(F   2,C  10,C   8,O   7)    178.5455         0.013258   
     51. D(F   2,C  10,C   8,F   1)    -60.3609         0.013258   
     52. D(F   4,C  11,C   9,H  13)    179.6130         0.013130   
     53. D(F   4,C  11,C   9,H  12)     61.2936         0.013130   
     54. D(F   4,C  11,C   9,O   7)    -59.5604         0.013130   
     55. D(F   5,C  11,C   9,H  13)     59.8979         0.013130   
     56. D(F   5,C  11,C   9,H  12)    -58.4215         0.013130   
     57. D(F   5,C  11,C   9,O   7)   -179.2756         0.013130   
    -----------------------------------------------------------------

Number of atoms                         .... 15
Number of degrees of freedom            .... 57


         *************************************************************
         *                GEOMETRY OPTIMIZATION CYCLE   1            *
         *************************************************************
---------------------------------
CARTESIAN COORDINATES (ANGSTROEM)
---------------------------------
  F      2.033600    0.958500   -1.198100
  F      1.407800    1.544600    0.818400
  F      3.147000   -0.576800    0.750400
  F      1.788800   -1.671100   -0.552300
  F     -2.751200    1.053800   -0.440600
  F     -3.139200   -0.465800    1.075500
  F     -2.385400   -1.048500   -0.891200
  O     -0.054900    0.427300   -0.507800
  C      1.305300    0.575500   -0.121600
  C     -0.889300    0.038200    0.574300
  C      1.841100   -0.724300    0.416300
  C     -2.303500   -0.111200    0.076600
  H     -0.850700    0.790200    1.369300
  H     -0.604200   -0.934500    0.980000
  H      1.341900   -1.101000    1.309100

----------------------------
CARTESIAN COORDINATES (A.U.)
----------------------------
  NO LB      ZA    FRAG     MASS         X           Y           Z
   0 F     9.0000    0    18.998    3.842947    1.811302   -2.264081
   1 F     9.0000    0    18.998    2.660356    2.918871    1.546552
   2 F     9.0000    0    18.998    5.946968   -1.089994    1.418050
   3 F     9.0000    0    18.998    3.380342   -3.157921   -1.043696
   4 F     9.0000    0    18.998   -5.199015    1.991393   -0.832613
   5 F     9.0000    0    18.998   -5.932228   -0.880234    2.032400
   6 F     9.0000    0    18.998   -4.507753   -1.981378   -1.684124
   7 O     8.0000    0    15.999   -0.103746    0.807480   -0.959603
   8 C     6.0000    0    12.011    2.466660    1.087537   -0.229791
   9 C     6.0000    0    12.011   -1.680533    0.072188    1.085270
  10 C     6.0000    0    12.011    3.479175   -1.368729    0.786693
  11 C     6.0000    0    12.011   -4.352984   -0.210138    0.144753
  12 H     1.0000    0     1.008   -1.607590    1.493262    2.587602
  13 H     1.0000    0     1.008   -1.141773   -1.765949    1.851932
  14 H     1.0000    0     1.008    2.535823   -2.080588    2.473840

--------------------------------
INTERNAL COORDINATES (ANGSTROEM)
--------------------------------
 F      0   0   0     0.000000000000     0.00000000     0.00000000
 F      1   0   0     2.191212244398     0.00000000     0.00000000
 F      1   2   0     2.719091373970    66.95269226     0.00000000
 F      3   1   2     2.176976577733    66.39338032   114.53912106
 F      2   1   3     4.373013450700    88.66211289   235.33513761
 F      5   2   1     2.181349896280    92.70835785   120.39000474
 F      5   2   1     2.180943669607    90.46710442    60.27552537
 O      1   2   3     2.262856553120    61.21437214   105.48298545
 C      2   1   3     1.353979711813    36.02899012   290.80489025
 C      8   1   2     1.420761267772   146.99999123   325.10918997
 C      4   3   1     1.355489391327    36.60314589   290.12731330
 C      7   5   2     1.349768772790    36.16333255    55.34989779
 H     10   8   1     1.094997242006   110.13203910    59.31889680
 H     10   8   1     1.091796588198   111.94085263   297.32238297
 H     11   4   3     1.090043746829   109.03927371   245.78398568

---------------------------
INTERNAL COORDINATES (A.U.)
---------------------------
 F      0   0   0     0.000000000000     0.00000000     0.00000000
 F      1   0   0     4.140791043207     0.00000000     0.00000000
 F      1   2   0     5.138338029912    66.95269226     0.00000000
 F      3   1   2     4.113889531877    66.39338032   114.53912106
 F      2   1   3     8.263797801776    88.66211289   235.33513761
 F      5   2   1     4.122153906226    92.70835785   120.39000474
 F      5   2   1     4.121386249067    90.46710442    60.27552537
 O      1   2   3     4.276179165747    61.21437214   105.48298545
 C      2   1   3     2.558650846211    36.02899012   290.80489025
 C      8   1   2     2.684849697771   146.99999123   325.10918997
 C      4   3   1     2.561503727044    36.60314589   290.12731330
 C      7   5   2     2.550693324693    36.16333255    55.34989779
 H     10   8   1     2.069244904790   110.13203910    59.31889680
 H     10   8   1     2.063196545643   111.94085263   297.32238297
 H     11   4   3     2.059884155499   109.03927371   245.78398568

---------------------
BASIS SET INFORMATION
---------------------
There are 4 groups of distinct atoms

 Group   1 Type F   : 12s6p3d1f contracted to 5s4p3d1f pattern {63111/3111/111/1}
 Group   2 Type O   : 12s6p3d1f contracted to 5s4p3d1f pattern {63111/3111/111/1}
 Group   3 Type C   : 12s6p3d1f contracted to 5s4p3d1f pattern {63111/3111/111/1}
 Group   4 Type H   : 6s3p1d contracted to 4s3p1d pattern {3111/111/1}

Atom   0F    basis set group =>   1
Atom   1F    basis set group =>   1
Atom   2F    basis set group =>   1
Atom   3F    basis set group =>   1
Atom   4F    basis set group =>   1
Atom   5F    basis set group =>   1
Atom   6F    basis set group =>   1
Atom   7O    basis set group =>   2
Atom   8C    basis set group =>   3
Atom   9C    basis set group =>   3
Atom  10C    basis set group =>   3
Atom  11C    basis set group =>   3
Atom  12H    basis set group =>   4
Atom  13H    basis set group =>   4
Atom  14H    basis set group =>   4
---------------------------------
AUXILIARY/J BASIS SET INFORMATION
---------------------------------
There are 4 groups of distinct atoms

 Group   1 Type F   : 12s5p4d2f1g contracted to 6s4p3d1f1g pattern {711111/2111/211/2/1}
 Group   2 Type O   : 12s5p4d2f1g contracted to 6s4p3d1f1g pattern {711111/2111/211/2/1}
 Group   3 Type C   : 12s5p4d2f1g contracted to 6s4p3d1f1g pattern {711111/2111/211/2/1}
 Group   4 Type H   : 5s2p1d contracted to 3s1p1d pattern {311/2/1}

Atom   0F    basis set group =>   1
Atom   1F    basis set group =>   1
Atom   2F    basis set group =>   1
Atom   3F    basis set group =>   1
Atom   4F    basis set group =>   1
Atom   5F    basis set group =>   1
Atom   6F    basis set group =>   1
Atom   7O    basis set group =>   2
Atom   8C    basis set group =>   3
Atom   9C    basis set group =>   3
Atom  10C    basis set group =>   3
Atom  11C    basis set group =>   3
Atom  12H    basis set group =>   4
Atom  13H    basis set group =>   4
Atom  14H    basis set group =>   4
------------------------------------------------------------------------------
                             ORCA STARTUP CALCULATIONS
                           -- RI-GTO INTEGRALS CHOSEN --
------------------------------------------------------------------------------
------------------------------------------------------------------------------
                   ___                                                        
                  /   \      - P O W E R E D   B Y -                         
                 /     \                                                     
                 |  |  |   _    _      __       _____    __    __             
                 |  |  |  | |  | |    /  \     |  _  \  |  |  /  |          
                  \  \/   | |  | |   /    \    | | | |  |  | /  /          
                 / \  \   | |__| |  /  /\  \   | |_| |  |  |/  /          
                |  |  |   |  __  | /  /__\  \  |    /   |      \           
                |  |  |   | |  | | |   __   |  |    \   |  |\   \          
                \     /   | |  | | |  |  |  |  | |\  \  |  | \   \       
                 \___/    |_|  |_| |__|  |__|  |_| \__\ |__|  \__/        
                                                                              
                      - O R C A' S   B I G   F R I E N D -                    
                                      &                                       
                       - I N T E G R A L  F E E D E R -                       
                                                                              
 v1 FN, 2020, v2 2021, v3 2022-2024                                           
------------------------------------------------------------------------------


----------------------
SHARK INTEGRAL PACKAGE
----------------------

Number of atoms                             ...     15
Number of basis functions                   ...    522
Number of shells                            ...    180
Maximum angular momentum                    ...      3
Integral batch strategy                     ... SHARK/LIBINT Hybrid
RI-J (if used) integral strategy            ... SPLIT-RIJ (Revised 2003 algorithm where possible)
Printlevel                                  ...      1
Contraction scheme used                     ... SEGMENTED contraction
Prescreening option                         ... SCHWARTZ
   Thresh                                   ... 2.500e-11
   Tcut                                     ... 2.500e-12
   Tpresel                                  ... 2.500e-12 
Coulomb Range Separation                    ... NOT USED
Exchange Range Separation                   ... NOT USED
Multipole approximations                    ... NOT USED
Finite Nucleus Model                        ... NOT USED
CABS basis                                  ... NOT available
Auxiliary Coulomb fitting basis             ... AVAILABLE
   # of basis functions in Aux-J            ...    621
   # of shells in Aux-J                     ...    195
   Maximum angular momentum in Aux-J        ...      4
Auxiliary J/K fitting basis                 ... NOT available
Auxiliary Correlation fitting basis         ... NOT available
Auxiliary 'external' fitting basis          ... NOT available

Checking pre-screening integrals            ... done (  0.0 sec) Dimension = 180
   => SHARK Basis and OBASIS are compatible. Storing Pre-screening
Shell pair information
Shell pair cut-off parameter TPreSel        ...   2.5e-12
Total number of shell pairs                 ...     16290
Shell pairs after pre-screening             ...     13595
Total number of primitive shell pairs       ...     43626
Primitive shell pairs kept                  ...     27071
          la=0 lb=0:   2181 shell pairs
          la=1 lb=0:   3578 shell pairs
          la=1 lb=1:   1485 shell pairs
          la=2 lb=0:   2235 shell pairs
          la=2 lb=1:   1881 shell pairs
          la=2 lb=2:    589 shell pairs
          la=3 lb=0:    675 shell pairs
          la=3 lb=1:    572 shell pairs
          la=3 lb=2:    343 shell pairs
          la=3 lb=3:     56 shell pairs

Checking whether 4 symmetric matrices of dimension 522 fit in memory
:Max Core in MB      =   4096.00
 MB in use           =     20.00
 MB left             =   4076.00
 MB needed           =      4.17
 Data fit in memory  = YES
Calculating RI/J V-Matrix + Cholesky decomp.... done (  0.0 sec)
Calculating Nuclear repulsion               ... done (  0.0 sec) ENN=    847.814180921515 Eh

Diagonalization of the overlap matrix:
Smallest eigenvalue                        ... 2.336e-05
Time for diagonalization                   ...    0.027 sec
Threshold for overlap eigenvalues          ... 1.000e-07
Number of eigenvalues below threshold      ... 0
Time for construction of square roots      ...    0.014 sec
Total time needed                          ...    0.042 sec

-------------------
DFT GRID GENERATION
-------------------

General Integration Accuracy     IntAcc      ... 4.388
Radial Grid Type                 RadialGrid  ... OptM3 with GC (2021)
Angular Grid (max. ang.)         AngularGrid ... 4 (Lebedev-302)
Angular grid pruning method      GridPruning ... 4 (adaptive)
Weight generation scheme         WeightScheme... mBecke (2022)
Basis function cutoff            BFCut       ... 1.0000e-11
Integration weight cutoff        WCut        ... 1.0000e-14
Partially contracted basis set               ... off
Rotationally invariant grid construction     ... off
Angular grids for H and He will be reduced by one unit
Diffuse basis detected: some atoms will have their outermost
                        angular grid increased by 1.

Total number of grid points                  ...    86521
Total number of batches                      ...     1358
Average number of points per batch           ...       63
Average number of grid points per atom       ...     5768

--------------------
COSX GRID GENERATION
--------------------

GRIDX 1
-------
General Integration Accuracy     IntAcc      ... 3.816
Radial Grid Type                 RadialGrid  ... OptM3 with GC (2021)
Angular Grid (max. ang.)         AngularGrid ... 1 (Lebedev-50)
Angular grid pruning method      GridPruning ... 4 (adaptive)
Weight generation scheme         WeightScheme... mBecke (2022)
Basis function cutoff            BFCut       ... 1.0000e-11
Integration weight cutoff        WCut        ... 1.0000e-14
Partially contracted basis set               ... on
Rotationally invariant grid construction     ... off
Angular grids for H and He will be reduced by one unit
Diffuse basis detected: some atoms will have their outermost
                        angular grid increased by 1.

Total number of grid points                  ...    10883
Total number of batches                      ...       92
Average number of points per batch           ...      118
Average number of grid points per atom       ...      726
UseSFitting                                  ... on

GRIDX 2
-------
General Integration Accuracy     IntAcc      ... 4.020
Radial Grid Type                 RadialGrid  ... OptM3 with GC (2021)
Angular Grid (max. ang.)         AngularGrid ... 2 (Lebedev-110)
Angular grid pruning method      GridPruning ... 4 (adaptive)
Weight generation scheme         WeightScheme... mBecke (2022)
Basis function cutoff            BFCut       ... 1.0000e-11
Integration weight cutoff        WCut        ... 1.0000e-14
Partially contracted basis set               ... on
Rotationally invariant grid construction     ... off
Angular grids for H and He will be reduced by one unit
Diffuse basis detected: some atoms will have their outermost
                        angular grid increased by 1.

Total number of grid points                  ...    28467
Total number of batches                      ...      230
Average number of points per batch           ...      123
Average number of grid points per atom       ...     1898
UseSFitting                                  ... on

GRIDX 3
-------
General Integration Accuracy     IntAcc      ... 4.338
Radial Grid Type                 RadialGrid  ... OptM3 with GC (2021)
Angular Grid (max. ang.)         AngularGrid ... 3 (Lebedev-194)
Angular grid pruning method      GridPruning ... 4 (adaptive)
Weight generation scheme         WeightScheme... mBecke (2022)
Basis function cutoff            BFCut       ... 1.0000e-11
Integration weight cutoff        WCut        ... 1.0000e-14
Partially contracted basis set               ... on
Rotationally invariant grid construction     ... off
Angular grids for H and He will be reduced by one unit
Diffuse basis detected: some atoms will have their outermost
                        angular grid increased by 1.

Total number of grid points                  ...    61921
Total number of batches                      ...      490
Average number of points per batch           ...      126
Average number of grid points per atom       ...     4128
UseSFitting                                  ... on
Grids setup in   1.7 sec
Initializing property integral containers    ... done (  0.0 sec)

SHARK setup successfully completed in   2.1 seconds

Maximum memory used throughout the entire STARTUP-calculation: 70.6 MB
-------------------------------------------------------------------------------
                                 ORCA GUESS
                   Start orbitals & Density for SCF / CASSCF
-------------------------------------------------------------------------------

------------
SCF SETTINGS
------------
Hamiltonian:
 Density Functional     Method          .... DFT(GTOs)
 Exchange Functional    Exchange        .... B88
   X-Alpha parameter    XAlpha          ....  0.666667
   Becke's b parameter  XBeta           ....  0.004200
 Correlation Functional Correlation     .... LYP
 LDA part of GGA corr.  LDAOpt          .... VWN-5
 Gradients option       PostSCFGGA      .... off
 Hybrid DFT is turned on
   Fraction HF Exchange ScalHFX         ....  0.200000
   Scaling of DF-GGA-X  ScalDFX         ....  0.720000
   Scaling of DF-GGA-C  ScalDFC         ....  0.810000
   Scaling of DF-LDA-C  ScalLDAC        ....  1.000000
   Perturbative correction              ....  0.000000
   NL short-range parameter             ....  4.800000
 RI-approximation to the Coulomb term is turned on
   Number of AuxJ basis functions       .... 621
   RIJ-COSX (HFX calculated with COS-X)).... on


General Settings:
 Integral files         IntName         .... HFE_347pcf2_gauche1
 Hartree-Fock type      HFTyp           .... RHF
 Total Charge           Charge          ....    0
 Multiplicity           Mult            ....    1
 Number of Electrons    NEL             ....   98
 Basis Dimension        Dim             ....  522
 Nuclear Repulsion      ENuc            ....    847.8141809215 Eh

Convergence Acceleration:
 AO-DIIS                CNVDIIS         .... on
   Start iteration      DIISMaxIt       ....    12
   Startup error        DIISStart       ....  0.200000
   # of expansion vecs  DIISMaxEq       ....     5
   Bias factor          DIISBfac        ....   1.050
   Max. coefficient     DIISMaxC        ....  10.000
 MO-DIIS                CNVKDIIS        .... off
 Trust-Rad. Augm. Hess. CNVTRAH         .... auto
   Auto Start mean grad. ratio tolernc. ....  1.125000
   Auto Start start iteration           ....    50
   Auto Start num. interpolation iter.  ....    10
   Max. Number of Micro iterations      ....    24
   Max. Number of Macro iterations      .... Maxiter - #DIIS iter
   Number of Davidson start vectors     ....     2
   Converg. threshold    (grad. norm)   ....   1.000e-05
   Grad. Scal. Fac. for Micro threshold ....   0.100
   Minimum threshold for Micro iter.    ....   1.000e-02
   NR start threshold (gradient norm)   ....   1.000e-04
   Initial trust radius                 ....   0.400
   Minimum AH scaling param. (alpha)    ....   1.000
   Maximum AH scaling param. (alpha)    .... 1000.000
   Quad. conv. algorithm                .... NR
   White noise on init. David. guess    .... on
   Maximum white noise                  ....   0.010
   Pseudo random numbers                .... off
   Inactive MOs                         .... canonical
   Orbital update algorithm             .... Taylor
   Preconditioner                       .... Diag
   Full preconditioner red. dimension   ....   250
 SOSCF                 CNVSOSCF           .... on
   Start iteration     SOSCFMaxIt         ....   150
   Startup grad/error  SOSCFStart         ....  0.003300
   Hessian update      SOSCFHessUp        .... L-BFGS
   Autom. constraints  SOSCFAutoConstrain .... off
 Level Shifting         CNVShift        .... on
   Level shift para.    LevelShift      ....    0.2500
   Turn off err/grad.   ShiftErr        ....    0.0010
 Zerner damping         CNVZerner       .... off
 Static damping         CNVDamp         .... on
   Fraction old density DampFac         ....    0.7000
   Max. Damping (<1)    DampMax         ....    0.9800
   Min. Damping (>=0)   DampMin         ....    0.0000
   Turn off err/grad.   DampErr         ....    0.1000

SCF Procedure:
 Maximum # iterations   MaxIter         ....   125
 SCF integral mode      SCFMode         .... Direct
   Integral package                     .... SHARK and LIBINT hybrid scheme
 Reset frequency        DirectResetFreq ....    20
 Integral Threshold     Thresh          ....  2.500e-11 Eh
 Primitive CutOff       TCut            ....  2.500e-12 Eh

Convergence Tolerance:
 Convergence Check Mode ConvCheckMode   .... Total+1el-Energy
 Convergence forced     ConvForced      .... 0
 Energy Change          TolE            ....  1.000e-08 Eh
 1-El. energy change                    ....  1.000e-05 Eh
 Orbital Gradient       TolG            ....  1.000e-05
 Orbital Rotation angle TolX            ....  1.000e-05
 DIIS Error             TolErr          ....  5.000e-07

------------------------------
INITIAL GUESS: MODEL POTENTIAL
------------------------------
Loading Hartree-Fock densities                     ... done
Calculating cut-offs                               ... done
Initializing the effective Hamiltonian             ... done
Setting up the integral package (SHARK)            ... done
Starting the Coulomb interaction                   ... done (   0.4 sec)
Making the grid                                    ... done (   0.2 sec)
Mapping shells                                     ... done
Starting the XC term evaluation                    ... done (   0.5 sec)
  promolecular density results
     # of electrons  =     98.000029399
     EX              =   -100.074764221
     EC              =     -3.644413402
     EX+EC           =   -103.719177623
Transforming the Hamiltonian                       ... done (   0.0 sec)
Diagonalizing the Hamiltonian                      ... done (   0.0 sec)
Back transforming the eigenvectors                 ... done (   0.0 sec)
Now organizing SCF variables                       ... done
                      ------------------
                      INITIAL GUESS DONE (   1.2 sec)
                      ------------------
             **** ENERGY FILE WAS UPDATED (HFE_347pcf2_gauche1.en.tmp) ****
Finished Guess after   1.4 sec
Maximum memory used throughout the entire GUESS-calculation: 52.5 MB

-------------------------------------------------------------------------------------------
                                      ORCA LEAN-SCF
                              memory conserving SCF solver
-------------------------------------------------------------------------------------------

----------------------------------------D-I-I-S--------------------------------------------
Iteration    Energy (Eh)           Delta-E    RMSDP     MaxDP     DIISErr   Damp  Time(sec)
-------------------------------------------------------------------------------------------
               ***  Starting incremental Fock matrix formation  ***
    1    -928.0992497732671609     0.00e+00  1.03e-03  7.02e-02  2.28e-01  0.700  16.4
    2    -928.2072266750748213    -1.08e-01  5.78e-04  4.73e-02  8.94e-02  0.700   7.5
                               ***Turning on AO-DIIS***
    3    -928.2430898423291410    -3.59e-02  2.65e-04  2.62e-02  2.67e-02  0.700   6.9
    4    -928.2673323170507729    -2.42e-02  5.62e-04  5.24e-02  1.28e-02  0.000   6.9
                              *** Initializing SOSCF ***
---------------------------------------S-O-S-C-F--------------------------------------
Iteration    Energy (Eh)           Delta-E    RMSDP     MaxDP     MaxGrad    Time(sec)
--------------------------------------------------------------------------------------
    5    -928.3231306890760379    -5.58e-02  5.96e-05  3.24e-03  2.54e-03     7.2
               *** Restarting incremental Fock matrix formation ***
    6    -928.3231693262229101    -3.86e-05  3.77e-05  4.03e-03  1.91e-04    16.5
    7    -928.3231687501046281     5.76e-07  1.15e-05  8.39e-04  2.32e-04    12.3
    8    -928.3231754261438482    -6.68e-06  5.36e-06  4.82e-04  2.84e-05    11.1
    9    -928.3231754660968136    -4.00e-08  1.21e-06  6.62e-05  2.09e-05    10.2
   10    -928.3231755238385858    -5.77e-08  1.57e-06  1.39e-04  6.10e-06     8.5
   11    -928.3231755142543307     9.58e-09  7.29e-07  5.24e-05  6.26e-06     8.3
                 **** Energy Check signals convergence ****

               *****************************************************
               *                     SUCCESS                       *
               *           SCF CONVERGED AFTER  11 CYCLES          *
               *****************************************************

Recomputing exchange energy using gridx3       ... done (   29.754 sec)
Old exchange energy                            :    -20.088202134 Eh
New exchange energy                            :    -20.088240897 Eh
Exchange energy change after final integration :     -0.000038763 Eh
Total energy after final integration           :   -928.323214282 Eh
             **** ENERGY FILE WAS UPDATED (HFE_347pcf2_gauche1.en.tmp) ****

----------------
TOTAL SCF ENERGY
----------------

Total Energy       :       -928.32321428163254 Eh          -25260.95890 eV

Components:
Nuclear Repulsion  :        847.81418092151500 Eh           23070.19673 eV
Electronic Energy  :      -1776.13735644013263 Eh          -48331.15458 eV
One Electron Energy:      -2972.89196003547977 Eh          -80896.50293 eV
Two Electron Energy:       1196.75460359534713 Eh           32565.34835 eV

Virial components:
Potential Energy   :      -1854.00673378109468 Eh          -50450.08806 eV
Kinetic Energy     :        925.68351949946225 Eh           25189.12916 eV
Virial Ratio       :          2.00285161691503

DFT components:
N(Alpha)           :       49.000012297813 electrons
N(Beta)            :       49.000012297813 electrons
N(Total)           :       98.000024595626 electrons
E(X)               :      -80.038510238707 Eh       
E(C)               :       -4.261495434303 Eh       
E(XC)              :      -84.300005673010 Eh       

---------------
SCF CONVERGENCE
---------------

  Last Energy change         ...   -9.5843e-09  Tolerance :   1.0000e-08
  Last MAX-Density change    ...    5.2406e-05  Tolerance :   1.0000e-07
  Last RMS-Density change    ...    7.2926e-07  Tolerance :   5.0000e-09
  Last DIIS Error            ...    2.5447e-03  Tolerance :   5.0000e-07
  Last Orbital Gradient      ...    6.2583e-06  Tolerance :   1.0000e-05
  Last Orbital Rotation      ...    4.3731e-06  Tolerance :   1.0000e-05


----------------
ORBITAL ENERGIES
----------------

  NO   OCC          E(Eh)            E(eV) 
   0   2.0000     -24.740059      -673.2112 
   1   2.0000     -24.738970      -673.1816 
   2   2.0000     -24.735122      -673.0769 
   3   2.0000     -24.731128      -672.9682 
   4   2.0000     -24.728575      -672.8987 
   5   2.0000     -24.726046      -672.8299 
   6   2.0000     -24.722489      -672.7331 
   7   2.0000     -19.206537      -522.6364 
   8   2.0000     -10.450036      -284.3599 
   9   2.0000     -10.436595      -283.9942 
  10   2.0000     -10.378899      -282.4242 
  11   2.0000     -10.288818      -279.9730 
  12   2.0000      -1.335538       -36.3418 
  13   2.0000      -1.320708       -35.9383 
  14   2.0000      -1.292762       -35.1779 
  15   2.0000      -1.251939       -34.0670 
  16   2.0000      -1.251500       -34.0550 
  17   2.0000      -1.246004       -33.9055 
  18   2.0000      -1.236195       -33.6386 
  19   2.0000      -1.111013       -30.2322 
  20   2.0000      -0.834679       -22.7128 
  21   2.0000      -0.797200       -21.6929 
  22   2.0000      -0.712963       -19.4007 
  23   2.0000      -0.682190       -18.5633 
  24   2.0000      -0.636514       -17.3204 
  25   2.0000      -0.628511       -17.1027 
  26   2.0000      -0.625492       -17.0205 
  27   2.0000      -0.619743       -16.8641 
  28   2.0000      -0.605196       -16.4682 
  29   2.0000      -0.585016       -15.9191 
  30   2.0000      -0.578774       -15.7493 
  31   2.0000      -0.574306       -15.6277 
  32   2.0000      -0.520762       -14.1707 
  33   2.0000      -0.498183       -13.5562 
  34   2.0000      -0.494174       -13.4472 
  35   2.0000      -0.491765       -13.3816 
  36   2.0000      -0.481752       -13.1091 
  37   2.0000      -0.476385       -12.9631 
  38   2.0000      -0.464006       -12.6263 
  39   2.0000      -0.457264       -12.4428 
  40   2.0000      -0.455542       -12.3959 
  41   2.0000      -0.450033       -12.2460 
  42   2.0000      -0.442621       -12.0443 
  43   2.0000      -0.439243       -11.9524 
  44   2.0000      -0.436103       -11.8670 
  45   2.0000      -0.434961       -11.8359 
  46   2.0000      -0.416212       -11.3257 
  47   2.0000      -0.383149       -10.4260 
  48   2.0000      -0.348251        -9.4764 
  49   0.0000      -0.021930        -0.5967 
  50   0.0000       0.001497         0.0407 
  51   0.0000       0.009920         0.2699 
  52   0.0000       0.014848         0.4040 
  53   0.0000       0.032641         0.8882 
  54   0.0000       0.043731         1.1900 
  55   0.0000       0.053876         1.4660 
  56   0.0000       0.058674         1.5966 
  57   0.0000       0.068996         1.8775 
  58   0.0000       0.073121         1.9897 
  59   0.0000       0.075132         2.0444 
*Only the first 10 virtual orbitals were printed.

                    ********************************
                    * MULLIKEN POPULATION ANALYSIS *
                    ********************************

-----------------------
MULLIKEN ATOMIC CHARGES
-----------------------
   0 F :   -0.477271
   1 F :   -0.466834
   2 F :   -0.469324
   3 F :   -0.465240
   4 F :   -0.465499
   5 F :   -0.458194
   6 F :   -0.460478
   7 O :   -0.831783
   8 C :    1.561327
   9 C :   -0.019193
  10 C :    0.810736
  11 C :    1.630592
  12 H :    0.049284
  13 H :    0.057506
  14 H :    0.004373
Sum of atomic charges:    0.0000000

--------------------------------
MULLIKEN REDUCED ORBITAL CHARGES
--------------------------------
  0 F s       :     4.109893  s :     4.109893
      pz      :     1.633415  p :     5.343082
      px      :     1.802885
      py      :     1.906782
      dz2     :     0.006293  d :     0.023616
      dxz     :     0.004732
      dyz     :     0.006051
      dx2y2   :     0.003807
      dxy     :     0.002734
      f0      :     0.000103  f :     0.000681
      f+1     :     0.000193
      f-1     :     0.000094
      f+2     :     0.000123
      f-2     :     0.000121
      f+3     :     0.000022
      f-3     :     0.000026

  1 F s       :     4.075430  s :     4.075430
      pz      :     1.739987  p :     5.367618
      px      :     1.960118
      py      :     1.667513
      dz2     :     0.006189  d :     0.023119
      dxz     :     0.004033
      dyz     :     0.004632
      dx2y2   :     0.003920
      dxy     :     0.004346
      f0      :     0.000074  f :     0.000667
      f+1     :     0.000023
      f-1     :     0.000203
      f+2     :     0.000164
      f-2     :     0.000102
      f+3     :     0.000046
      f-3     :     0.000055

  2 F s       :     4.086719  s :     4.086719
      pz      :     1.934954  p :     5.358697
      px      :     1.458310
      py      :     1.965433
      dz2     :     0.002261  d :     0.023258
      dxz     :     0.007628
      dyz     :     0.001540
      dx2y2   :     0.004554
      dxy     :     0.007275
      f0      :     0.000073  f :     0.000651
      f+1     :     0.000104
      f-1     :     0.000008
      f+2     :     0.000132
      f-2     :     0.000033
      f+3     :     0.000160
      f-3     :     0.000141

  3 F s       :     4.079947  s :     4.079947
      pz      :     1.702449  p :     5.361420
      px      :     1.956871
      py      :     1.702101
      dz2     :     0.006143  d :     0.023219
      dxz     :     0.004025
      dyz     :     0.004505
      dx2y2   :     0.004476
      dxy     :     0.004069
      f0      :     0.000085  f :     0.000655
      f+1     :     0.000027
      f-1     :     0.000191
      f+2     :     0.000164
      f-2     :     0.000099
      f+3     :     0.000039
      f-3     :     0.000050

  4 F s       :     4.103349  s :     4.103349
      pz      :     1.869715  p :     5.338355
      px      :     1.883525
      py      :     1.585115
      dz2     :     0.003296  d :     0.023107
      dxz     :     0.002623
      dyz     :     0.005535
      dx2y2   :     0.005994
      dxy     :     0.005658
      f0      :     0.000069  f :     0.000687
      f+1     :     0.000018
      f-1     :     0.000107
      f+2     :     0.000120
      f-2     :     0.000103
      f+3     :     0.000139
      f-3     :     0.000132

  5 F s       :     4.101155  s :     4.101155
      pz      :     1.694318  p :     5.333988
      px      :     1.722751
      py      :     1.916918
      dz2     :     0.006184  d :     0.022368
      dxz     :     0.004749
      dyz     :     0.004572
      dx2y2   :     0.003623
      dxy     :     0.003241
      f0      :     0.000088  f :     0.000683
      f+1     :     0.000197
      f-1     :     0.000064
      f+2     :     0.000129
      f-2     :     0.000130
      f+3     :     0.000037
      f-3     :     0.000039

  6 F s       :     4.099636  s :     4.099636
      pz      :     1.680158  p :     5.337049
      px      :     1.949329
      py      :     1.707562
      dz2     :     0.005931  d :     0.023102
      dxz     :     0.004806
      dyz     :     0.004573
      dx2y2   :     0.003640
      dxy     :     0.004153
      f0      :     0.000083  f :     0.000691
      f+1     :     0.000032
      f-1     :     0.000206
      f+2     :     0.000172
      f-2     :     0.000112
      f+3     :     0.000038
      f-3     :     0.000047

  7 O s       :     3.987581  s :     3.987581
      pz      :     1.586705  p :     4.781083
      px      :     1.298865
      py      :     1.895513
      dz2     :     0.012938  d :     0.061300
      dxz     :     0.015378
      dyz     :     0.011606
      dx2y2   :     0.007911
      dxy     :     0.013467
      f0      :     0.000167  f :     0.001820
      f+1     :     0.000209
      f-1     :     0.000123
      f+2     :     0.000372
      f-2     :     0.000217
      f+3     :     0.000376
      f-3     :     0.000355

  8 C s       :     3.118480  s :     3.118480
      pz      :     0.431873  p :     1.264691
      px      :     0.464967
      py      :     0.367851
      dz2     :    -0.025064  d :     0.015091
      dxz     :    -0.024507
      dyz     :     0.023964
      dx2y2   :     0.050462
      dxy     :    -0.009764
      f0      :     0.006419  f :     0.040411
      f+1     :     0.005730
      f-1     :     0.006001
      f+2     :     0.006707
      f-2     :     0.006787
      f+3     :     0.004091
      f-3     :     0.004677

  9 C s       :     3.404841  s :     3.404841
      pz      :     0.766435  p :     2.483518
      px      :     0.770340
      py      :     0.946743
      dz2     :    -0.007190  d :     0.119765
      dxz     :     0.034560
      dyz     :     0.024317
      dx2y2   :     0.027349
      dxy     :     0.040730
      f0      :     0.001644  f :     0.011070
      f+1     :     0.002091
      f-1     :     0.000998
      f+2     :     0.002417
      f-2     :     0.001842
      f+3     :     0.001158
      f-3     :     0.000920

 10 C s       :     3.285791  s :     3.285791
      pz      :     0.752372  p :     1.827383
      px      :     0.510260
      py      :     0.564751
      dz2     :    -0.018182  d :     0.044582
      dxz     :    -0.004131
      dyz     :     0.040897
      dx2y2   :     0.017254
      dxy     :     0.008744
      f0      :     0.003842  f :     0.031508
      f+1     :     0.003734
      f-1     :     0.004466
      f+2     :     0.005859
      f-2     :     0.003917
      f+3     :     0.004725
      f-3     :     0.004966

 11 C s       :     3.146088  s :     3.146088
      pz      :     0.414274  p :     1.159554
      px      :     0.326228
      py      :     0.419051
      dz2     :    -0.031377  d :     0.015136
      dxz     :     0.017763
      dyz     :     0.008306
      dx2y2   :     0.054302
      dxy     :    -0.033857
      f0      :     0.006941  f :     0.048629
      f+1     :     0.005231
      f-1     :     0.008986
      f+2     :     0.007295
      f-2     :     0.009070
      f+3     :     0.005558
      f-3     :     0.005548

 12 H s       :     0.909555  s :     0.909555
      pz      :     0.023570  p :     0.038273
      px      :     0.004139
      py      :     0.010564
      dz2     :     0.000921  d :     0.002889
      dxz     :     0.000614
      dyz     :     0.000473
      dx2y2   :     0.000309
      dxy     :     0.000573

 13 H s       :     0.898170  s :     0.898170
      pz      :     0.023734  p :     0.041346
      px      :     0.008221
      py      :     0.009390
      dz2     :     0.000318  d :     0.002978
      dxz     :     0.000318
      dyz     :     0.001036
      dx2y2   :     0.000574
      dxy     :     0.000732

 14 H s       :     0.921433  s :     0.921433
      pz      :     0.030122  p :     0.071171
      px      :     0.036723
      py      :     0.004325
      dz2     :     0.000917  d :     0.003023
      dxz     :     0.000831
      dyz     :     0.000549
      dx2y2   :     0.000426
      dxy     :     0.000300



                     *******************************
                     * LOEWDIN POPULATION ANALYSIS *
                     *******************************

----------------------
LOEWDIN ATOMIC CHARGES
----------------------
   0 F :    0.233006
   1 F :    0.220842
   2 F :    0.197537
   3 F :    0.207298
   4 F :    0.210082
   5 F :    0.210057
   6 F :    0.213720
   7 O :    0.235387
   8 C :   -0.625149
   9 C :    0.008200
  10 C :   -0.340290
  11 C :   -0.674849
  12 H :   -0.021186
  13 H :   -0.039397
  14 H :   -0.035259

-------------------------------
LOEWDIN REDUCED ORBITAL CHARGES
-------------------------------
  0 F s       :     3.556529  s :     3.556529
      pz      :     1.621784  p :     5.123797
      px      :     1.719804
      py      :     1.782209
      dz2     :     0.021636  d :     0.084849
      dxz     :     0.023078
      dyz     :     0.022265
      dx2y2   :     0.010427
      dxy     :     0.007443
      f0      :     0.000251  f :     0.001820
      f+1     :     0.000510
      f-1     :     0.000293
      f+2     :     0.000322
      f-2     :     0.000320
      f+3     :     0.000061
      f-3     :     0.000063

  1 F s       :     3.550461  s :     3.550461
      pz      :     1.677956  p :     5.138412
      px      :     1.809165
      py      :     1.651291
      dz2     :     0.019296  d :     0.088420
      dxz     :     0.013342
      dyz     :     0.028576
      dx2y2   :     0.016660
      dxy     :     0.010546
      f0      :     0.000231  f :     0.001864
      f+1     :     0.000072
      f-1     :     0.000515
      f+2     :     0.000464
      f-2     :     0.000303
      f+3     :     0.000106
      f-3     :     0.000173

  2 F s       :     3.560932  s :     3.560932
      pz      :     1.807252  p :     5.147829
      px      :     1.527555
      py      :     1.813023
      dz2     :     0.010408  d :     0.091854
      dxz     :     0.027599
      dyz     :     0.003953
      dx2y2   :     0.025590
      dxy     :     0.024304
      f0      :     0.000194  f :     0.001847
      f+1     :     0.000307
      f-1     :     0.000020
      f+2     :     0.000358
      f-2     :     0.000112
      f+3     :     0.000432
      f-3     :     0.000424

  3 F s       :     3.558014  s :     3.558014
      pz      :     1.667920  p :     5.142591
      px      :     1.808190
      py      :     1.666482
      dz2     :     0.025343  d :     0.090269
      dxz     :     0.011438
      dyz     :     0.027711
      dx2y2   :     0.015826
      dxy     :     0.009952
      f0      :     0.000278  f :     0.001828
      f+1     :     0.000074
      f-1     :     0.000545
      f+2     :     0.000427
      f-2     :     0.000265
      f+3     :     0.000090
      f-3     :     0.000150

  4 F s       :     3.560572  s :     3.560572
      pz      :     1.769918  p :     5.140573
      px      :     1.777557
      py      :     1.593099
      dz2     :     0.009296  d :     0.086903
      dxz     :     0.008687
      dyz     :     0.023757
      dx2y2   :     0.022824
      dxy     :     0.022339
      f0      :     0.000198  f :     0.001870
      f+1     :     0.000030
      f-1     :     0.000274
      f+2     :     0.000321
      f-2     :     0.000312
      f+3     :     0.000374
      f-3     :     0.000360

  5 F s       :     3.561689  s :     3.561689
      pz      :     1.657204  p :     5.140909
      px      :     1.687814
      py      :     1.795892
      dz2     :     0.020595  d :     0.085484
      dxz     :     0.026424
      dyz     :     0.016599
      dx2y2   :     0.013038
      dxy     :     0.008829
      f0      :     0.000250  f :     0.001860
      f+1     :     0.000513
      f-1     :     0.000180
      f+2     :     0.000376
      f-2     :     0.000341
      f+3     :     0.000094
      f-3     :     0.000105

  6 F s       :     3.559855  s :     3.559855
      pz      :     1.658281  p :     5.138019
      px      :     1.810690
      py      :     1.669048
      dz2     :     0.017309  d :     0.086534
      dxz     :     0.015454
      dyz     :     0.028629
      dx2y2   :     0.013507
      dxy     :     0.011635
      f0      :     0.000202  f :     0.001872
      f+1     :     0.000098
      f-1     :     0.000563
      f+2     :     0.000446
      f-2     :     0.000333
      f+3     :     0.000099
      f-3     :     0.000131

  7 O s       :     3.191001  s :     3.191001
      pz      :     1.445107  p :     4.303183
      px      :     1.239137
      py      :     1.618939
      dz2     :     0.051298  d :     0.263970
      dxz     :     0.069794
      dyz     :     0.034998
      dx2y2   :     0.061769
      dxy     :     0.046111
      f0      :     0.001020  f :     0.006460
      f+1     :     0.001141
      f-1     :     0.000407
      f+2     :     0.001285
      f-2     :     0.000832
      f+3     :     0.000940
      f-3     :     0.000835

  8 C s       :     2.546863  s :     2.546863
      pz      :     0.754510  p :     2.421003
      px      :     0.806035
      py      :     0.860459
      dz2     :     0.258621  d :     1.444841
      dxz     :     0.308954
      dyz     :     0.332964
      dx2y2   :     0.304802
      dxy     :     0.239499
      f0      :     0.033504  f :     0.212443
      f+1     :     0.029903
      f-1     :     0.032037
      f+2     :     0.037787
      f-2     :     0.033745
      f+3     :     0.021615
      f-3     :     0.023852

  9 C s       :     2.537635  s :     2.537635
      pz      :     0.833292  p :     2.619607
      px      :     0.855724
      py      :     0.930590
      dz2     :     0.141882  d :     0.766037
      dxz     :     0.173928
      dyz     :     0.183318
      dx2y2   :     0.161652
      dxy     :     0.105258
      f0      :     0.010509  f :     0.068521
      f+1     :     0.014561
      f-1     :     0.006694
      f+2     :     0.011498
      f-2     :     0.011872
      f+3     :     0.007399
      f-3     :     0.005989

 10 C s       :     2.556970  s :     2.556970
      pz      :     0.844783  p :     2.459802
      px      :     0.760189
      py      :     0.854830
      dz2     :     0.199304  d :     1.155919
      dxz     :     0.231480
      dyz     :     0.240228
      dx2y2   :     0.275502
      dxy     :     0.209406
      f0      :     0.019704  f :     0.167599
      f+1     :     0.020431
      f-1     :     0.023955
      f+2     :     0.031806
      f-2     :     0.019471
      f+3     :     0.026278
      f-3     :     0.025954

 11 C s       :     2.551131  s :     2.551131
      pz      :     0.755214  p :     2.389256
      px      :     0.888034
      py      :     0.746008
      dz2     :     0.255151  d :     1.487209
      dxz     :     0.305826
      dyz     :     0.359961
      dx2y2   :     0.304741
      dxy     :     0.261530
      f0      :     0.034505  f :     0.247253
      f+1     :     0.026766
      f-1     :     0.045352
      f+2     :     0.039859
      f-2     :     0.044710
      f+3     :     0.027367
      f-3     :     0.028694

 12 H s       :     0.758504  s :     0.758504
      pz      :     0.085760  p :     0.229588
      px      :     0.051850
      py      :     0.091979
      dz2     :     0.008082  d :     0.033094
      dxz     :     0.005856
      dyz     :     0.009718
      dx2y2   :     0.004973
      dxy     :     0.004466

 13 H s       :     0.757528  s :     0.757528
      pz      :     0.062935  p :     0.247904
      px      :     0.070564
      py      :     0.114405
      dz2     :     0.004231  d :     0.033964
      dxz     :     0.002836
      dyz     :     0.009537
      dx2y2   :     0.009377
      dxy     :     0.007983

 14 H s       :     0.776507  s :     0.776507
      pz      :     0.099383  p :     0.226524
      px      :     0.074152
      py      :     0.052990
      dz2     :     0.008903  d :     0.032228
      dxz     :     0.008209
      dyz     :     0.008824
      dx2y2   :     0.003600
      dxy     :     0.002693



                      *****************************
                      * MAYER POPULATION ANALYSIS *
                      *****************************

  NA   - Mulliken gross atomic population
  ZA   - Total nuclear charge
  QA   - Mulliken gross atomic charge
  VA   - Mayer's total valence
  BVA  - Mayer's bonded valence
  FA   - Mayer's free valence

  ATOM       NA         ZA         QA         VA         BVA        FA
  0 F      9.4773     9.0000    -0.4773     0.6940     0.6940     0.0000
  1 F      9.4668     9.0000    -0.4668     0.6950     0.6950    -0.0000
  2 F      9.4693     9.0000    -0.4693     0.6462     0.6462     0.0000
  3 F      9.4652     9.0000    -0.4652     0.7485     0.7485     0.0000
  4 F      9.4655     9.0000    -0.4655     0.6729     0.6729     0.0000
  5 F      9.4582     9.0000    -0.4582     0.6289     0.6289     0.0000
  6 F      9.4605     9.0000    -0.4605     0.7165     0.7165     0.0000
  7 O      8.8318     8.0000    -0.8318     1.6801     1.6801    -0.0000
  8 C      4.4387     6.0000     1.5613     2.4001     2.4001     0.0000
  9 C      6.0192     6.0000    -0.0192     3.6655     3.6655    -0.0000
 10 C      5.1893     6.0000     0.8107     3.0794     3.0794     0.0000
 11 C      4.3694     6.0000     1.6306     2.5060     2.5060     0.0000
 12 H      0.9507     1.0000     0.0493     0.9835     0.9835     0.0000
 13 H      0.9425     1.0000     0.0575     0.9594     0.9594    -0.0000
 14 H      0.9956     1.0000     0.0044     1.0399     1.0399    -0.0000

  Mayer bond orders larger than 0.100000
B(  0-F ,  8-C ) :   0.5356 B(  1-F ,  8-C ) :   0.5700 B(  2-F , 10-C ) :   0.5927 
B(  3-F , 10-C ) :   0.7027 B(  4-F , 11-C ) :   0.5685 B(  5-F , 11-C ) :   0.5891 
B(  6-F , 11-C ) :   0.5903 B(  7-O ,  8-C ) :   0.6709 B(  7-O ,  9-C ) :   0.7656 
B(  8-C , 10-C ) :   0.8138 B(  9-C , 11-C ) :   0.7955 B(  9-C , 12-H ) :   1.0117 
B(  9-C , 13-H ) :   1.0130 B( 10-C , 14-H ) :   1.0358 

-------
TIMINGS
-------

Total SCF time: 0 days 0 hours 2 min 29 sec 

Total time                  ....     149.674 sec
Sum of individual times     ....     141.809 sec  ( 94.7%)

SCF preparation             ....       0.133 sec  (  0.1%)
Fock matrix formation       ....     140.530 sec  ( 93.9%)
  Startup                   ....       5.437 sec  (  3.9% of F)
  Split-RI-J                ....       2.369 sec  (  1.7% of F)
  Chain of spheres X        ....     124.615 sec  ( 88.7% of F)
  XC integration            ....      15.437 sec  ( 11.0% of F)
    XC Preparation          ....       0.000 sec  (  0.0% of XC)
    Basis function eval.    ....       2.761 sec  ( 17.9% of XC)
    XC-Functional eval.     ....       0.259 sec  (  1.7% of XC)
    XC-Potential eval.      ....      13.311 sec  ( 86.2% of XC)
Diagonalization             ....       0.000 sec  (  0.0%)
Density matrix formation    ....       0.279 sec  (  0.2%)
Total Energy calculation    ....       0.011 sec  (  0.0%)
Population analysis         ....       0.035 sec  (  0.0%)
Orbital Transformation      ....       0.108 sec  (  0.1%)
Orbital Orthonormalization  ....       0.000 sec  (  0.0%)
DIIS solution               ....       0.371 sec  (  0.2%)
SOSCF solution              ....       0.342 sec  (  0.2%)
Finished LeanSCF after 149.7 sec

Maximum memory used throughout the entire LEANSCF-calculation: 76.5 MB

------------------------------------------------------------------------------
                         ORCA PROPERTY INTEGRAL CALCULATIONS
------------------------------------------------------------------------------

GBWName                                   ... HFE_347pcf2_gauche1.gbw
Number of atoms                           ...     15
Number of basis functions                 ...    522
Max core memory                           ...   4096 MB

Dipole integrals                          ... YES
Quadrupole integrals                      ...  NO
Linear momentum integrals                 ...  NO
Angular momentum integrals                ...  NO
Higher moments length integrals           ...  NO
Higher moments velocity integrals         ...  NO
Kinetic energy integrals                  ...  NO
GIAO right hand sides                     ...  NO
GIAO dipole derivative integrals          ...  NO
SOC integrals                             ...  NO
EPR diamagnetic integrals (GIAO)          ...  NO
EPR gauge integrals                       ...  NO
Field gradient integrals                  ...  NO (   0 nuclei)
Spin-dipole/Fermi contact integrals       ...  NO (   0 nuclei)
Contact density integrals                 ...  NO (   0 nuclei)
Nucleus-orbit integrals                   ...  NO (   0 nuclei)
Geometric perturbations                   ...  NO (  15 nuclei)

Choice of electric origin   ... Center of mass
Position of electric origin ... (  0.0036, -0.0093, -0.0132) 
Choice of magnetic origin   ... GIAO
Position of magnetic origin ... (  0.0000,  0.0000,  0.0000) 

Calculating integrals                     ... Electric Dipole (Length)     done (  0.0 sec)

Property integrals calculated in   0.0 sec

Maximum memory used throughout the entire PROPINT-calculation: 54.7 MB

-------------------------   --------------------
FINAL SINGLE POINT ENERGY      -928.323214281633
-------------------------   --------------------

------------------------------------------------------------------------------
                         ORCA SCF GRADIENT CALCULATION
------------------------------------------------------------------------------

Nuc. rep. gradient        (SHARK) ... done (  0.0 sec)
HCore & Overlap gradient  (SHARK) ... done (  5.9 sec)
Split-RIJ-J gradient      (SHARK) ... done ( -2.0 sec)
COSX-gradient                     ... done ( 68.3 sec)
XC gradient                       ... done (  6.9 sec)

------------------
CARTESIAN GRADIENT
------------------

   1   F   :    0.017593004    0.004749636   -0.012827720
   2   F   :   -0.002034471    0.002509358    0.000534346
   3   F   :   -0.002470047   -0.004556602   -0.000887326
   4   F   :    0.005410407   -0.002196574   -0.000524292
   5   F   :    0.000338162    0.007574765   -0.002754185
   6   F   :   -0.008002319   -0.001086858    0.004020929
   7   F   :    0.001052778   -0.005096386   -0.007190784
   8   O   :   -0.028217796   -0.004554609   -0.003168769
   9   C   :    0.025757149   -0.012263804    0.021526134
  10   C   :   -0.002841339    0.000485928   -0.009640883
  11   C   :   -0.025731006    0.023407156   -0.007638029
  12   C   :    0.010250331   -0.007422789    0.014585478
  13   H   :    0.004075116    0.002585895    0.001614355
  14   H   :    0.001689499   -0.000826664    0.000281975
  15   H   :    0.003130532   -0.003308450    0.002068771

Difference to translation invariance:
           :   -0.0000000000    0.0000000000   -0.0000000000

Difference to rotation invariance:
           :    0.0002678268    0.0004395060    0.0001554712

Norm of the Cartesian gradient     ...    0.0685264689
RMS gradient                       ...    0.0102153229
MAX gradient                       ...    0.0282177959

-------
TIMINGS
-------

Total SCF gradient time     ....       79.215 sec

Densities                   ....       0.004 sec  (  0.0%)
One electron gradient       ....       5.927 sec  (  7.5%)
RI-J Coulomb gradient       ....      -1.958 sec  ( -2.5%)
COSX gradient               ....      68.341 sec  ( 86.3%)
XC gradient                 ....       6.902 sec  (  8.7%)

Maximum memory used throughout the entire SCFGRAD-calculation: 89.1 MB
------------------------------------------------------------------------------
                         ORCA GEOMETRY RELAXATION STEP
------------------------------------------------------------------------------

Reading the OPT-File                    .... done
Getting information on internals        .... done
Copying old internal coords+grads       .... done
Making the new internal coordinates     .... (2022 redundants) done
Validating the new internal coordinates .... (2022 redundants) done
Calculating the B-matrix                .... done
Calculating the G,G- and P matrices     .... done
Transforming gradient to internals      .... done
Projecting the internal gradient        .... done
Number of atoms                         ....  15
Number of internal coordinates          ....  57
Current Energy                          ....  -928.323214282 Eh
Current gradient norm                   ....     0.068526469 Eh/bohr
Maximum allowed component of the step   ....  0.300
Current trust radius                    ....  0.300
Evaluating the initial hessian          ....  (Almloef) done
Projecting the Hessian                  .... done
Forming the augmented Hessian           .... done
Diagonalizing the augmented Hessian     .... done
Last element of RFO vector              ....  0.967421580
Lowest eigenvalues of augmented Hessian:
 -0.011743244  0.013130279  0.013385621  0.019715765  0.020667714
Length of the computed step             ....  0.261696524
The final length of the internal step   ....  0.261696524
Converting the step to Cartesian space:
 Initial RMS(Int)=    0.0346625513
Transforming coordinates:
 Iter   0:  RMS(Cart)=    0.1518729502 RMS(Int)=    0.8248690866
 Iter   5:  RMS(Cart)=    0.0000014645 RMS(Int)=    0.0000010363
done
Storing new coordinates                 .... done

                                .--------------------.
          ----------------------|Geometry convergence|-------------------------
          Item                value                   Tolerance       Converged
          ---------------------------------------------------------------------
          RMS gradient        0.0086861719            0.0001000000      NO
          MAX gradient        0.0294294706            0.0003000000      NO
          RMS step            0.0346625513            0.0020000000      NO
          MAX step            0.1085640609            0.0040000000      NO
          -------------------------------------------------------------------------
          ........................................................
          Max(Bonds)      0.0264      Max(Angles)    4.25
          Max(Dihed)        6.22      Max(Improp)    0.00
          ---------------------------------------------------------------------

The optimization has not yet converged - more geometry cycles are needed


    ---------------------------------------------------------------------------
                         Redundant Internal Coordinates
                            (Angstroem and degrees)

        Definition                    Value    dE/dq     Step     New-Value
    ----------------------------------------------------------------------------
     1. B(C   8,F   1)                1.3540  0.002011 -0.0018    1.3522   
     2. B(C   8,O   7)                1.4217  0.022211 -0.0231    1.3987   
     3. B(C   8,F   0)                1.3550  0.020990 -0.0184    1.3366   
     4. B(C   9,O   7)                1.4208 -0.002155  0.0022    1.4230   
     5. B(C  10,F   3)                1.3555  0.001694 -0.0015    1.3540   
     6. B(C  10,C   8)                1.5053 -0.020998  0.0264    1.5317   
     7. B(C  10,F   2)                1.3560 -0.003092  0.0027    1.3587   
     8. B(C  11,F   6)                1.3498  0.008635 -0.0074    1.3423   
     9. B(C  11,F   5)                1.3498  0.008209 -0.0071    1.3427   
    10. B(C  11,C   9)                1.5066 -0.005671  0.0072    1.5138   
    11. B(C  11,F   4)                1.3510  0.007478 -0.0065    1.3445   
    12. B(H  12,C   9)                1.0950  0.003091 -0.0045    1.0905   
    13. B(H  13,C   9)                1.0918  0.001278 -0.0018    1.0900   
    14. B(H  14,C  10)                1.0900  0.001413 -0.0020    1.0880   
    15. A(C   8,O   7,C   9)          112.55 -0.029429    4.13    116.68   
    16. A(F   1,C   8,C  10)          110.06  0.007676   -0.50    109.56   
    17. A(F   1,C   8,O   7)          109.61  0.002690    0.41    110.02   
    18. A(O   7,C   8,C  10)          110.34 -0.027057    4.25    114.59   
    19. A(F   0,C   8,C  10)          109.67  0.001823   -0.59    109.08   
    20. A(F   0,C   8,F   1)          107.97 -0.002390   -0.42    107.55   
    21. A(F   0,C   8,O   7)          109.14  0.017968   -3.27    105.87   
    22. A(H  12,C   9,H  13)          109.44 -0.000132    0.36    109.80   
    23. A(C  11,C   9,H  13)          106.23 -0.002262    0.32    106.55   
    24. A(O   7,C   9,H  13)          111.94 -0.002968    0.67    112.61   
    25. A(C  11,C   9,H  12)          109.94  0.002998   -0.90    109.04   
    26. A(O   7,C   9,H  12)          110.13 -0.005287    0.83    110.96   
    27. A(O   7,C   9,C  11)          109.08  0.007965   -1.34    107.74   
    28. A(F   3,C  10,H  14)          109.04 -0.002070    0.11    109.15   
    29. A(F   2,C  10,H  14)          106.07 -0.005769    0.71    106.78   
    30. A(F   2,C  10,F   3)          106.81 -0.006460    1.36    108.17   
    31. A(F   3,C  10,C   8)          109.52  0.004022   -0.43    109.08   
    32. A(C   8,C  10,H  14)          115.35  0.005179   -1.11    114.23   
    33. A(F   2,C  10,C   8)          109.69  0.003883   -0.41    109.28   
    34. A(F   4,C  11,C   9)          110.61 -0.008797    1.22    111.83   
    35. A(F   5,C  11,F   6)          108.10  0.003125   -0.40    107.70   
    36. A(F   4,C  11,F   6)          107.71 -0.001662    0.24    107.95   
    37. A(F   4,C  11,F   5)          107.74 -0.000596    0.04    107.78   
    38. A(F   6,C  11,C   9)          111.26 -0.002584    0.38    111.65   
    39. A(F   5,C  11,C   9)          111.27  0.010448   -1.48    109.79   
    40. D(F   1,C   8,O   7,C   9)    -61.36  0.002174    3.85    -57.51   
    41. D(F   0,C   8,O   7,C   9)   -179.42 -0.007079    6.05   -173.37   
[...]
freq.     259.56  E(vib)   ...       0.34 
freq.     323.47  E(vib)   ...       0.28 
freq.     353.71  E(vib)   ...       0.26 
freq.     374.41  E(vib)   ...       0.24 
freq.     418.53  E(vib)   ...       0.22 
freq.     512.19  E(vib)   ...       0.16 
freq.     530.98  E(vib)   ...       0.15 
freq.     556.48  E(vib)   ...       0.14 
freq.     577.37  E(vib)   ...       0.13 
freq.     594.00  E(vib)   ...       0.13 
freq.     655.60  E(vib)   ...       0.10 
freq.     738.39  E(vib)   ...       0.08 
freq.     848.61  E(vib)   ...       0.05 
freq.     858.48  E(vib)   ...       0.05 
freq.     978.97  E(vib)   ...       0.03 
freq.    1080.21  E(vib)   ...       0.02 
freq.    1095.14  E(vib)   ...       0.02 
freq.    1120.46  E(vib)   ...       0.02 
freq.    1144.45  E(vib)   ...       0.02 
freq.    1159.08  E(vib)   ...       0.02 
freq.    1180.59  E(vib)   ...       0.02 
freq.    1206.47  E(vib)   ...       0.02 
freq.    1284.80  E(vib)   ...       0.01 
freq.    1293.02  E(vib)   ...       0.01 
freq.    1317.73  E(vib)   ...       0.01 
freq.    1369.96  E(vib)   ...       0.01 
freq.    1420.54  E(vib)   ...       0.01 
freq.    1444.02  E(vib)   ...       0.01 
freq.    1498.71  E(vib)   ...       0.01 
freq.    3049.44  E(vib)   ...       0.00 
freq.    3079.35  E(vib)   ...       0.00 
freq.    3114.17  E(vib)   ...       0.00 

------------
INNER ENERGY
------------

The inner energy is: U= E(el) + E(ZPE) + E(vib) + E(rot) + E(trans)
    E(el)   - is the total energy from the electronic structure calculation
              = E(kin-el) + E(nuc-el) + E(el-el) + E(nuc-nuc)
    E(ZPE)  - the the zero temperature vibrational energy from the frequency calculation
    E(vib)  - the the finite temperature correction to E(ZPE) due to population
              of excited vibrational states
    E(rot)  - is the rotational thermal energy
    E(trans)- is the translational thermal energy

Summary of contributions to the inner energy U:
Electronic energy                ...   -928.33143888 Eh
Zero point energy                ...      0.08250138 Eh      51.77 kcal/mol
Thermal vibrational correction   ...      0.00964073 Eh       6.05 kcal/mol
Thermal rotational correction    ...      0.00152006 Eh       0.95 kcal/mol
Thermal translational correction ...      0.00152006 Eh       0.95 kcal/mol
-----------------------------------------------------------------------
Total thermal energy                   -928.23625665 Eh


Summary of corrections to the electronic energy:
(perhaps to be used in another calculation)
Total thermal correction                  0.01268086 Eh       7.96 kcal/mol
Non-thermal (ZPE) correction              0.08250138 Eh      51.77 kcal/mol
-----------------------------------------------------------------------
Total correction                          0.09518223 Eh      59.73 kcal/mol


--------
ENTHALPY
--------

The enthalpy is H = U + kB*T
                kB is Boltzmann's constant
Total thermal energy              ...   -928.23625665 Eh 
Thermal Enthalpy correction       ...      0.00101341 Eh       0.64 kcal/mol
-----------------------------------------------------------------------
Total Enthalpy                    ...   -928.23524324 Eh


Note: Only C1 symmetry has been detected, increase convergence thresholds 
      if your molecule has a higher symmetry. Symmetry factor of 1.0 is   
      used for the rotational entropy correction. 
 

Note: Rotational entropy computed according to Herzberg 
Infrared and Raman Spectra, Chapter V,1, Van Nostrand Reinhold, 1945 
Point Group:  C1, Symmetry Number:   1  
Rotational constants in cm-1:     0.059853     0.015473     0.014549 

Vibrational entropy computed according to the QRRHO of S. Grimme
Chem.Eur.J. 2012 18 9955 using a reference frequency of 100.0 cm-1


-------
ENTROPY
-------

The entropy contributions are T*S = T*(S(el)+S(vib)+S(rot)+S(trans))
     S(el)   - electronic entropy
     S(vib)  - vibrational entropy
     S(rot)  - rotational entropy
     S(trans)- translational entropy
The entropies will be listed as multiplied by the temperature to get
units of energy

Electronic entropy                ...      0.00000000 Eh      0.00 kcal/mol
Vibrational entropy               ...      0.01755611 Eh     11.02 kcal/mol
Rotational entropy                ...      0.01599770 Eh     10.04 kcal/mol
Translational entropy             ...      0.02148743 Eh     13.48 kcal/mol
-----------------------------------------------------------------------
Final entropy term                ...      0.05504125 Eh     34.54 kcal/mol

In case the symmetry of your molecule has not been determined correctly
or in case you have a reason to use a different symmetry number we print 
out the resulting rotational entropy values for sn=1,12:

 non-linear molecules -----------------------------------
|  sn= 1 | S(rot)=       0.01599770 Eh     10.04 kcal/mol|
|  sn= 2 | S(rot)=       0.01529529 Eh      9.60 kcal/mol|
|  sn= 3 | S(rot)=       0.01488440 Eh      9.34 kcal/mol|
|  sn= 4 | S(rot)=       0.01459287 Eh      9.16 kcal/mol|
|  sn= 5 | S(rot)=       0.01436674 Eh      9.02 kcal/mol|
|  sn= 6 | S(rot)=       0.01418198 Eh      8.90 kcal/mol|
|  sn= 7 | S(rot)=       0.01402577 Eh      8.80 kcal/mol|
|  sn= 8 | S(rot)=       0.01389045 Eh      8.72 kcal/mol|
|  sn= 9 | S(rot)=       0.01377109 Eh      8.64 kcal/mol|
|  sn=10 | S(rot)=       0.01366432 Eh      8.57 kcal/mol|
|  sn=11 | S(rot)=       0.01356774 Eh      8.51 kcal/mol|
|  sn=12 | S(rot)=       0.01347956 Eh      8.46 kcal/mol|
 linear molecules ---------------------------------------
|  Dinfh | S(rot)=       0.01007462 Eh      6.32 kcal/mol|
|  Cinfv | S(rot)=       0.01077703 Eh      6.76 kcal/mol|
 --------------------------------------------------------


-------------------
GIBBS FREE ENERGY
-------------------

The Gibbs free energy is G = H - T*S

Total enthalpy                    ...   -928.23524324 Eh 
Total entropy correction          ...     -0.05504125 Eh    -34.54 kcal/mol
-----------------------------------------------------------------------
Final Gibbs free energy         ...   -928.29028449 Eh

For completeness - the Gibbs free energy minus the electronic energy
G-E(el)                           ...      0.04115439 Eh     25.82 kcal/mol


The first frequency considered to be a vibration is 6
The total number of vibrations considered is 39


--------------------------
THERMOCHEMISTRY AT 340.00K
--------------------------

Temperature         ...   340.00 K
Pressure            ...     1.00 atm
Total Mass          ...   200.05 AMU
Quasi RRHO          ...     True
Cut-Off Frequency   ...     1.00 cm^-1

Throughout the following assumptions are being made:
  (1) The electronic state is orbitally nondegenerate
  (2) There are no thermally accessible electronically excited states
  (3) Hindered rotations indicated by low frequency modes are not
      treated as such but are treated as vibrations and this may
      cause some error
  (4) All equations used are the standard statistical mechanics
      equations for an ideal gas
  (5) All vibrations are strictly harmonic

freq.      18.91  E(vib)   ...       0.65 
freq.      33.39  E(vib)   ...       0.63 
freq.      68.54  E(vib)   ...       0.58 
freq.      90.02  E(vib)   ...       0.56 
freq.     147.38  E(vib)   ...       0.49 
freq.     182.85  E(vib)   ...       0.45 
freq.     233.96  E(vib)   ...       0.40 
freq.     259.56  E(vib)   ...       0.37 
freq.     323.47  E(vib)   ...       0.32 
freq.     353.71  E(vib)   ...       0.29 
freq.     374.41  E(vib)   ...       0.28 
freq.     418.53  E(vib)   ...       0.25 
freq.     512.19  E(vib)   ...       0.19 
freq.     530.98  E(vib)   ...       0.18 
freq.     556.48  E(vib)   ...       0.17 
freq.     577.37  E(vib)   ...       0.16 
freq.     594.00  E(vib)   ...       0.15 
freq.     655.60  E(vib)   ...       0.12 
freq.     738.39  E(vib)   ...       0.10 
freq.     848.61  E(vib)   ...       0.07 
freq.     858.48  E(vib)   ...       0.07 
freq.     978.97  E(vib)   ...       0.05 
freq.    1080.21  E(vib)   ...       0.03 
freq.    1095.14  E(vib)   ...       0.03 
freq.    1120.46  E(vib)   ...       0.03 
freq.    1144.45  E(vib)   ...       0.03 
freq.    1159.08  E(vib)   ...       0.02 
freq.    1180.59  E(vib)   ...       0.02 
freq.    1206.47  E(vib)   ...       0.02 
freq.    1284.80  E(vib)   ...       0.02 
freq.    1293.02  E(vib)   ...       0.02 
freq.    1317.73  E(vib)   ...       0.01 
freq.    1369.96  E(vib)   ...       0.01 
freq.    1420.54  E(vib)   ...       0.01 
freq.    1444.02  E(vib)   ...       0.01 
freq.    1498.71  E(vib)   ...       0.01 
freq.    3049.44  E(vib)   ...       0.00 
freq.    3079.35  E(vib)   ...       0.00 
freq.    3114.17  E(vib)   ...       0.00 

------------
INNER ENERGY
------------

The inner energy is: U= E(el) + E(ZPE) + E(vib) + E(rot) + E(trans)
    E(el)   - is the total energy from the electronic structure calculation
              = E(kin-el) + E(nuc-el) + E(el-el) + E(nuc-nuc)
    E(ZPE)  - the the zero temperature vibrational energy from the frequency calculation
    E(vib)  - the the finite temperature correction to E(ZPE) due to population
              of excited vibrational states
    E(rot)  - is the rotational thermal energy
    E(trans)- is the translational thermal energy

Summary of contributions to the inner energy U:
Electronic energy                ...   -928.33143888 Eh
Zero point energy                ...      0.08250138 Eh      51.77 kcal/mol
Thermal vibrational correction   ...      0.01077438 Eh       6.76 kcal/mol
Thermal rotational correction    ...      0.00161507 Eh       1.01 kcal/mol
Thermal translational correction ...      0.00161507 Eh       1.01 kcal/mol
-----------------------------------------------------------------------
Total thermal energy                   -928.23493299 Eh


Summary of corrections to the electronic energy:
(perhaps to be used in another calculation)
Total thermal correction                  0.01400452 Eh       8.79 kcal/mol
Non-thermal (ZPE) correction              0.08250138 Eh      51.77 kcal/mol
-----------------------------------------------------------------------
Total correction                          0.09650590 Eh      60.56 kcal/mol


--------
ENTHALPY
--------

The enthalpy is H = U + kB*T
                kB is Boltzmann's constant
Total thermal energy              ...   -928.23493299 Eh 
Thermal Enthalpy correction       ...      0.00107674 Eh       0.68 kcal/mol
-----------------------------------------------------------------------
Total Enthalpy                    ...   -928.23385624 Eh


Note: Only C1 symmetry has been detected, increase convergence thresholds 
      if your molecule has a higher symmetry. Symmetry factor of 1.0 is   
      used for the rotational entropy correction. 
 

Note: Rotational entropy computed according to Herzberg 
Infrared and Raman Spectra, Chapter V,1, Van Nostrand Reinhold, 1945 
Point Group:  C1, Symmetry Number:   1  
Rotational constants in cm-1:     0.059853     0.015473     0.014549 

Vibrational entropy computed according to the QRRHO of S. Grimme
Chem.Eur.J. 2012 18 9955 using a reference frequency of 100.0 cm-1


-------
ENTROPY
-------

The entropy contributions are T*S = T*(S(el)+S(vib)+S(rot)+S(trans))
     S(el)   - electronic entropy
     S(vib)  - vibrational entropy
     S(rot)  - rotational entropy
     S(trans)- translational entropy
The entropies will be listed as multiplied by the temperature to get
units of energy

Electronic entropy                ...      0.00000000 Eh      0.00 kcal/mol
Vibrational entropy               ...      0.01970149 Eh     12.36 kcal/mol
Rotational entropy                ...      0.01709547 Eh     10.73 kcal/mol
Translational entropy             ...      0.02299358 Eh     14.43 kcal/mol
-----------------------------------------------------------------------
Final entropy term                ...      0.05979055 Eh     37.52 kcal/mol

In case the symmetry of your molecule has not been determined correctly
or in case you have a reason to use a different symmetry number we print 
out the resulting rotational entropy values for sn=1,12:

 non-linear molecules -----------------------------------
|  sn= 1 | S(rot)=       0.01709547 Eh     10.73 kcal/mol|
|  sn= 2 | S(rot)=       0.01634915 Eh     10.26 kcal/mol|
|  sn= 3 | S(rot)=       0.01591259 Eh      9.99 kcal/mol|
|  sn= 4 | S(rot)=       0.01560283 Eh      9.79 kcal/mol|
|  sn= 5 | S(rot)=       0.01536257 Eh      9.64 kcal/mol|
|  sn= 6 | S(rot)=       0.01516627 Eh      9.52 kcal/mol|
|  sn= 7 | S(rot)=       0.01500029 Eh      9.41 kcal/mol|
|  sn= 8 | S(rot)=       0.01485652 Eh      9.32 kcal/mol|
|  sn= 9 | S(rot)=       0.01472970 Eh      9.24 kcal/mol|
|  sn=10 | S(rot)=       0.01461625 Eh      9.17 kcal/mol|
|  sn=11 | S(rot)=       0.01451363 Eh      9.11 kcal/mol|
|  sn=12 | S(rot)=       0.01441995 Eh      9.05 kcal/mol|
 linear molecules ---------------------------------------
|  Dinfh | S(rot)=       0.01076955 Eh      6.76 kcal/mol|
|  Cinfv | S(rot)=       0.01151587 Eh      7.23 kcal/mol|
 --------------------------------------------------------


-------------------
GIBBS FREE ENERGY
-------------------

The Gibbs free energy is G = H - T*S

Total enthalpy                    ...   -928.23385624 Eh 
Total entropy correction          ...     -0.05979055 Eh    -37.52 kcal/mol
-----------------------------------------------------------------------
Final Gibbs free energy         ...   -928.29364680 Eh

For completeness - the Gibbs free energy minus the electronic energy
G-E(el)                           ...      0.03779209 Eh     23.71 kcal/mol


Maximum memory used throughout the entire PROP-calculation: 174.1 MB

--------------------------------
SUGGESTED CITATIONS FOR THIS RUN
--------------------------------

Below you find a list of papers that are relevant to this ORCA run
We neither can nor want to force you to cite these papers, but we appreciate if you do
You receive ORCA, which is the product of decades of hard work by many enthusiastic individuals, for free
The only thing we kindly ask in return is that you cite our papers,
We deeply appreciate it, if you show your appreciation for ORCA by not just citing the generic ORCA reference.

Please note that relegating all ORCA citations to the supporting information does *not* help us.
SI sections are not indexed - citations you put there will not count into any citation statistics
But we need these citations in order to attract the funding resources that allow us to do what we are doing

Therefore, if you are a happy ORCA user, please consider citing a few of the papers listed below in the main body of your paper

In addition to the list printed below, the program has created the file HFE_347pcf2_gauche1.bibtex that contains the list in bibtex format
You can import this file easily into all common literature databanks and citation aid programs

It goes without saying that in many instances, there are alternative algorithms to achieve similar
results as the ones you have gotten from ORCA. It is, of course, also the case that in some instances
ORCA just re-implements algorithms worked out by others. We are fully aware of that and we are also
fully appreciative of our colleagues work. Hence this citation list should not be read as indicating
that the listed papers, which are focused on our own work, are the only ones worth citing. It simply
meant to make it easier for users to cite ORCA specific papers. It is not a substitute for doing your
own literature research and citing the relevant literature in a scientifically appropriate manner.

List of essential papers. We consider these as the minimum necessary citations

  1. Neese, F.
     Software update: the ORCA program system, version 6.0
     WIRES Comput. Molec. Sci. 2025 15(1), e70019
     doi.org/10.1002/wcms.70019

List of papers to cite with high priority. The work reported in these papers was absolutely
necessary for this run to complete.
Our perspective: the developers of density functionals and basis sets usually get cited in chemistry papers
Good! But without the algorithms to do something with them, the functionals or basis sets would not do anything.
Hence, in our opinion, the algorithm design and method developments papers are equally worthy of getting cited

  1. Neese, F.
     An improvement of the resolution of the identity approximation for the formation of the Coulomb matrix
     J. Comp. Chem. 2003 24(14), 1740-1747
     doi.org/10.1002/jcc.10318
  2. Neese, F.; Wennmohs, F.; Hansen, A.; Becker, U.
     Efficient, approximate and parallel Hartree-Fock and hybrid DFT calculations. A 'chain-of-spheres' algorithm for the Hartree-Fock exchange
     Chem. Phys. 2009 356(1-3), 98-109
     doi.org/10.1016/j.chemphys.2008.10.036
  3. Bykov, D.; Petrenko, T.; Izsak, R.; Kossmann, S.; Becker, U.; Valeev, E.; Neese, F.
     Efficient implementation of the analytic second derivatives of Hartree-Fock and hybrid DFT energies: a detailed analysis of different approximations
     Molec. Phys. 2015 113 , 1961-1977
     doi.org/10.1080/00268976.2015.1025114
  4. Helmich-Paris, B.; de Souza, B.; Neese, F.; Izsák, R.
     An improved chain of spheres for exchange algorithm
     J. Chem. Phys. 2021 155(10), 104109
     doi.org/10.1063/5.0058766
  5. Neese, F.
     The SHARK Integral Generation and Digestion System
     J. Comp. Chem. 2022 44(3), 381
     doi.org/10.1002/jcc.26942

List of suggested additional citations. These are papers that are important in the 'surrounding' of 
of this run, or papers that preceded the highly important papers. If you like your results we are grateful for a citation.

  1. Izsak, R.; Neese, F.
     An overlap fitted chain of spheres exchange method
     J. Chem. Phys. 2011 135 , 144105
     doi.org/10.1063/1.3646921
  2. Izsak, R.; Hansen, A.; Neese, F.
     The resolution of identity and chain of spheres approximations for the LPNO-CCSD singles Fock term
     Molec. Phys. 2012 110 , 2413-2417
     doi.org/10.1080/00268976.2012.687466
  3. Neese, F.
     The ORCA program system
     WIRES Comput. Molec. Sci. 2012 2(1), 73-78
     doi.org/10.1002/wcms.81
  4. Izsak, R.; Neese, F.; Klopper, W.
     Robust fitting techniques in the chain of spheres approximation to the Fock exchange: The role of the complementary space
     J. Chem. Phys. 2013 139 , 
     doi.org/10.1063/1.4819264
  5. Neese, F.
     Software update: the ORCA program system, version 4.0
     WIRES Comput. Molec. Sci. 2018 8(1), 1-6
     doi.org/10.1002/wcms.1327
  6. Neese, F.; Wennmohs, F.; Becker, U.; Riplinger, C.
     The ORCA quantum chemistry program package
     J. Chem. Phys. 2020 152(22), 224108
     doi.org/10.1063/5.0004608
  7. Neese, F.
     Software update: The ORCA program system—Version 5.0
     WIRES Comput. Molec. Sci. 2022 12(1), e1606
     doi.org/10.1002/wcms.1606

List of optional additional citations

  1. Neese, F.
     Approximate second-order SCF convergence for spin unrestricted wavefunctions
     Chem. Phys. Lett. 2000 325(1-3), 93-98
     doi.org/10.1016/s0009-2614(00)00662-x

Timings for individual modules:

Sum of individual times          ...     5241.271 sec (=  87.355 min)
Startup calculation              ...       27.615 sec (=   0.460 min)   0.5 %
SCF iterations                   ...     2428.507 sec (=  40.475 min)  46.3 %
Property integrals               ...      478.945 sec (=   7.982 min)   9.1 %
SCF Response                     ...      322.872 sec (=   5.381 min)   6.2 %
Property calculations            ...      973.704 sec (=  16.228 min)  18.6 %
SCF Gradient evaluation          ...     1009.561 sec (=  16.826 min)  19.3 %
Geometry relaxation              ...        0.067 sec (=   0.001 min)   0.0 %
                             ****ORCA TERMINATED NORMALLY****
TOTAL RUN TIME: 0 days 1 hours 27 minutes 23 seconds 239 msec
