
                                 *****************
                                 * O   R   C   A *
                                 *****************

                                            #,                                       
                                            ###                                      
                                            ####                                     
                                            #####                                    
                                            ######                                   
                                           ########,                                 
                                     ,,################,,,,,                         
                               ,,#################################,,                 
                          ,,##########################################,,             
                       ,#########################################, ''#####,          
                    ,#############################################,,   '####,        
                  ,##################################################,,,,####,       
                ,###########''''           ''''###############################       
              ,#####''   ,,,,##########,,,,          '''####'''          '####       
            ,##' ,,,,###########################,,,                        '##       
           ' ,,###''''                  '''############,,,                           
         ,,##''                                '''############,,,,        ,,,,,,###''
      ,#''                                            '''#######################'''  
     '                                                          ''''####''''         
             ,#######,   #######,   ,#######,      ##                                
            ,#'     '#,  ##    ##  ,#'     '#,    #''#        ,####,    ,#,          
            ##       ##  ##   ,#'  ##            #'  '#       #'       ,# #          
            ##       ##  #######   ##           ,######,      #####,      #          
            '#,     ,#'  ##    ##  '#,     ,#' ,#      #,     #,   #      #          
             '#######'   ##     ##  '#######'  #'      '#     '####' #    #          



                #########################################################
                #                        -***-                          #
                #          Department of theory and spectroscopy        #
                #                                                       #
                #                      Frank Neese                      #
                #                                                       #
                #     Directorship, Architecture, Infrastructure        #
                #                    SHARK, DRIVERS                     #
                #        Core code/Algorithms in most modules           #
                #                                                       #
                #        Max Planck Institute fuer Kohlenforschung      #
                #                Kaiser Wilhelm Platz 1                 #
                #                 D-45470 Muelheim/Ruhr                 #
                #                      Germany                          #
                #                                                       #
                #                  All rights reserved                  #
                #                        -***-                          #
                #########################################################


                         Program Version 6.1.1  -  RELEASE   -
                                (GIT: $487d211c$)
                          ($2025-11-21 10:33:24 +0100$)


 With contributions from (in alphabetic order):
[Max-Planck-Institut fuer Kohlenforschung]                               
  Daniel Aravena         : Magnetic Suceptibility                        
  Michael Atanasov       : Ab Initio Ligand Field Theory (pilot matlab implementation)
  Alexander A. Auer      : GIAO ZORA, VPT2 properties, NMR spectrum      
  Ute Becker             : All parallelization in ORCA, NUMFREQ, NUMCALC 
  Giovanni Bistoni       : ED, misc. LED, open-shell LED, HFLD           
  Dmytro Bykov           : pre 5.0 version of the SCF Hessian            
  Marcos Casanova-Páez   : Triplet and SCS-CIS(D). UHF-(DLPNO)-IP/EA/STEOM-CCSD. UHF-CVS-IP/STEOM-CCSD   
  Vijay G. Chilkuri      : MRCI spin determinant printing, contributions to CSF-ICE 
  Pauline Colinet        : FMM embedding                                 
  Dipayan Datta          : RHF DLPNO-CCSD density                        
  Achintya Kumar Dutta   : EOM-CC, STEOM-CC                              
  Nicolas Foglia         : Exact transition moments, OPA infrastructure, MCD improvements    
  Dmitry Ganyushin       : Spin-Orbit,Spin-Spin,Magnetic field MRCI      
  Miquel Garcia-Rates    : C-PCM and meta-GGA Hessian, CCSD/C-PCM, Gaussian charge scheme 
  Tiago L. C. Gouveia    : GS-ROHF, GS-ROCIS                             
  Yang Guo               : DLPNO-NEVPT2, F12-NEVPT2, CIM, IAO-localization        
  Andreas Hansen         : Spin unrestricted coupled pair/coupled cluster methods 
  Ingolf Harden          : AUTO-CI MPn and infrastructure                
  Benjamin Helmich-Paris : MC-RPA, TRAH-(SCF,CASSCF), AVAS, COSX integrals, SCF dyn. polar., MC-PDFT, srDFT 
  Lee Huntington         : MR-EOM, pCC                                   
  Robert Izsak           : Overlap fitted RIJCOSX, COSX-SCS-MP3, EOM     
  Riya Kayal             : Wick's Theorem for AUTO-CI, AUTO-CI UHF-CCSDT 
  Emily Kempfer          : AUTO-CI RHF CISDT and CCSDT, approximate NEVPT4
  Christian Kollmar      : KDIIS, OOCD, Brueckner-CCSD(T), CCSD density, CASPT2, CASPT2-K, improved NEVPT2 
  Axel Koslowski         : Symmetry handling                             
  Simone Kossmann        : meta-GGA functionals, TD-DFT gradient, OOMP2, (MP2 Hessian; deprecated post 5.0) 
  Lucas Lang             : DCDCAS, Hyperfine gauge corrections, ICE-SOC+SSC
  Marvin Lechner         : AUTO-CI (C++ implementation), FIC-MRCC        
  Spencer Leger          : CASSCF response                               
  Dagmar Lenk            : GEPOL surface, SMD, ORCA-2-JSON               
  Dimitrios Liakos       : Extrapolation schemes; Compound Job, Property file
  Dimitrios Manganas     : Further ROCIS development; embedding schemes. LFT, Crystal Embedding 
  Dimitrios Pantazis     : SARC Basis sets                               
  Anastasios Papadopoulos: AUTO-CI, single reference methods and gradients 
  Taras Petrenko         : pre 6.0 DFT Hessian and TD-DFT gradient,  ECA, NRVS 
  Petra Pikulova         : Analytic Raman intensities                    
  Peter Pinski           : DLPNO-MP2, DLPNO-MP2 Gradient                 
  Shashank Vittal Rao    : ES-AILFT, MagRelax                            
  Christoph Reimann      : Effective Core Potentials                     
  Marius Retegan         : Local ZFS, SOC                                
  Christoph Riplinger    : Optimizer, TS searches, QM/MM, DLPNO-CCSD(T), (RO)-DLPNO pert. Triples 
  Michael Roemelt        : Original ROCIS implementation, recursive CI coupling coefficients
  Masaaki Saitow         : Open-shell DLPNO-CCSD energy and density      
  Barbara Sandhoefer     : DKH picture change effects                    
  Yorick L. A. Schmerwitz: GMF and freeze-and-release deltaSCF, NEB S-IDPP initial path                    
  Kantharuban Sivalingam : CASSCF convergence/infrastructure, NEVPT2, NEVPT3, NEVPT4(SD), FIC-MRCI and CEPA variants
  Bernardo de Souza      : ESD, SOC TD-DFT                               
  Georgi L. Stoychev     : AutoAux, RI-MP2 NMR, DLPNO-MP2 response, X2C  
  Van Anh Tran           : RI-MP2 g-tensors                              
  Willem Van den Heuvel  : Paramagnetic NMR                              
  Zikuan Wang            : NOTCH, Electric field optimization            
  Frank Wennmohs         : Technical directorship and infrastructure     
  Hang Xu                : AUTO-CI-Response properties                   
                                                                         
[FACCTs GmbH]                                                            
  Markus Bursch, Nicolas Foglia, Miquel Garcia-Rates, Ingolf Harden, Hagen Neugebauer, Anastasios Papadopoulos, 
  Christoph Riplinger, Bernardo de Souza, Georgi L. Stoychev                                                    
                                                                 
  APM, various basis sets, CI-OPT, improved COSX, DLPNO-Multilevel,           
  DOCKER, DRACO, updates on ESD, Fragmentator, GOAT, IRC, LR-CPCM, L-BFGS, MBIS, meta-GGA TD-DFT gradient, ML-optimized integration grids, 
  MM, NACMEs, nearIR, NEB, NEB-TS, NL-DFT gradient (VV10), 2- and 3-layer-ONIOM, interface openCOSMO-RS, QMMM,   
  Crystal-QMMM, RESP, rigid body optimization, SF, symmetry and pop. for TD-DFT, various functionals, SOLVATOR                                   
                                                                         
[Other institutions]                                                     
  V. Asgeirsson          : NEB                                           
  Christoph Bannwarth    : sTDA-DFT, sTD-DFT, PBEh-3c, B97-3c, D3        
  Giovanni Bistoni       : ETS/NOCV, ADLD/ADEX, COVALED                  
  Martin Brehm           : Molecular dynamics                            
  Ronald Cardenas        : ETS/NOCV                                      
  Martina Colucci        : COVALED                                       
  Sebastian Ehlert       : rSCAN, r2SCAN, r2SCAN-3c, D4, dhf basis sets  
  Marvin Friede          : D4 for Fr, Ra, Ac-Lr                          
  Lars Goerigk           : TD-DFT with DH, B97 family of functionals     
  Stefan Grimme          : VdW corrections, initial TS optimization, DFT functionals, gCP, sTDA/sTD-DF 
  Waldemar Hujo          : DFT-NL                                        
  H. Jonsson             : NEB                                           
  Holger Kruse           : gCP                                           
  Marcel Mueller         : wB97X-3c, vDZP basis set                      
  Hagen Neugebauer       : wr2SCAN, Native XTB                           
  Gianluca Regni         : ADLD/ADEX                                     
  Tobias Risthaus        : pre 6.0 range-separated hybrid DFT and stability analysis
  Lukas Wittmann         : regularized MP2, r2SCAN double-hybrids, wr2SCAN        
                                                                         
We gratefully acknowledge several colleagues who have allowed us to      
interface, adapt or use parts of their codes:                            
  Ed Valeev, F. Pavosevic, A. Kumar             : LibInt (2-el integral package), F12 methods 
  Garnet Chan, S. Sharma, J. Yang, R. Olivares  : DMRG                   
  Ulf Ekstrom                                   : XCFun DFT Library      
  Mihaly Kallay                                 : mrcc  (arbitrary order and MRCC methods)
  Frank Weinhold                                : gennbo (NPA and NBO analysis)           
  Simon Mueller                                 : openCOSMO-RS                            
  Christopher J. Cramer and Donald G. Truhlar   : smd solvation model                     
  S Lehtola, MJT Oliveira, MAL Marques          : LibXC Library                           
  Liviu Ungur et al                             : ANISO software                          


 Your calculation uses the libint2 library for the computation of 2-el integrals
 For citations please refer to: http://libint.valeyev.net

 Your ORCA version has been built with support for libXC version: 7.0.0
 For citations please refer to: https://libxc.gitlab.io

 This ORCA versions uses:
   CBLAS   interface :  Fast vector & matrix operations
   LAPACKE interface :  Fast linear algebra routines
   SCALAPACK package :  Parallel linear algebra routines
   Shared memory     :  Shared parallel matrices
   BLAS/LAPACK       :  OpenBLAS 0.3.29  USE64BITINT DYNAMIC_ARCH NO_AFFINITY Cooperlake SINGLE_THREADED
        Core in use  :  Cooperlake
   Copyright (c) 2011-2014, The OpenBLAS Project


  ***********************************
  * Starting time: Tue Feb 17 12:47:24 2026
  * Host name:     Breado
  * Process ID:    3316
  * Working dir.:  /home/bread/other_data/B3LYP_6-311++G3df3pd
  ***********************************

Warning: RI is on but no J-basis has been assigned. Assigning Def2/J (nothing to worry about!)
================================================================================

----- Orbital basis set information -----
Your calculation utilizes the basis: 6-311++G(3df,3pd)
   H, Li - Ne  : R. Krishnan, J. S. Binkley, R. Seeger and J. A. Pople, J. Chem. Phys. 72, 650 (1980).
   Na - Ar     : A. D. McLean and G. S. Chandler J. Chem. Phys. 72, 5639, (1980).
   K  - Ca     : J.-P. Blaudeau, M. P. McGrath, L. A. Curtiss and L. Radom, J. Chem. Phys. 107, 5016 (1997).
   Ga - Kr     : L. A. Curtiss, M. P. McGrath, J.-P. Blandeau, N. E. Davis, R. C. Binning and L. Radom, J. Chem. Phys. 103, 6104 (1995).
   Pol./Diff.
   H, Li - Cl  : T. Clark, J. Chandrasekhar and P. v. R. Schleyer, J. Comp. Chem. 4, 294 (1983).
   H - Ne      : M. J. Frisch, J. A. Pople and J. S. Binkley, J. Chem. Phys. 80, 3265 (1984).

----- AuxJ basis set information -----
Your calculation utilizes the auxiliary basis: def2/J
   H-Rn: F. Weigend, Phys. Chem. Chem. Phys. 8, 1057 (2006).
   Fr-Lr: K. Eichkorn, F. Weigend, O. Treutler, R. Ahlrichs; Theor. Chem. Acc. 97, 119 (1997).

================================================================================
                                        WARNINGS
                       Please study these warnings very carefully!
================================================================================

WARNING: Old DensityContainer found on disk!
         Will remove this file - 
         If you want to keep old densities, please start your calculation with a different basename. 


WARNING: Geometry Optimization
  ===> : Switching off AutoStart
         For restart on a previous wavefunction, please use MOREAD

================================================================================
                                       INPUT FILE
================================================================================
NAME = HFE_347pcf2_anti.inp
|  1> # avogadro generated ORCA input file 
|  2> # Basic Mode
|  3> # 
|  4> ! B3LYP 6-311++G(3df,3pd) OPT FREQ 
|  5> % FREQ TEMP 305, 320, 340 END
|  6> 
|  7> * xyz 0 1
|  8>    F        1.28530       -1.62240        0.56030
|  9>    F        1.38880       -0.59790       -1.37380
| 10>    F        2.29800        1.67070       -0.14090
| 11>    F        3.53230       -0.08800        0.20960
| 12>    F       -2.56250        0.28010        1.34490
| 13>    F       -3.46870       -0.64150       -0.41230
| 14>    F       -2.46550        1.29230       -0.58450
| 15>    O       -0.03940        0.17810        0.20870
| 16>    C        1.23030       -0.41010       -0.04230
| 17>    C       -1.11330       -0.61630       -0.27520
| 18>    C        2.32920        0.47050        0.48930
| 19>    C       -2.41470        0.08470        0.01630
| 20>    H       -1.10420       -1.59410        0.21820
| 21>    H       -1.01120       -0.76410       -1.35560
| 22>    H        2.25350        0.63630        1.56730
| 23> *
| 24> 
| 25> 
| 26>                          ****END OF INPUT****
================================================================================

                       *****************************
                       * Geometry Optimization Run *
                       *****************************

Geometry optimization settings:
Update method            Update   .... BFGS
Choice of coordinates    CoordSys .... (2022) Redundant Internals
Initial Hessian          InHess   .... Almloef's Model
Max. no of cycles        MaxIter  .... 50

Convergence Tolerances:
Energy Change            TolE     ....  5.0000e-06 Eh
Max. Gradient            TolMAXG  ....  3.0000e-04 Eh/bohr
RMS Gradient             TolRMSG  ....  1.0000e-04 Eh/bohr
Max. Displacement        TolMAXD  ....  4.0000e-03 bohr
RMS Displacement         TolRMSD  ....  2.0000e-03 bohr
Strict Convergence                .... False

------------------------------------------------------------------------------
                        ORCA OPTIMIZATION COORDINATE SETUP
------------------------------------------------------------------------------

The optimization will be done in redundant internal coordinates (2022)
Making redundant internal coordinates   ...  (2022 redundants) done
Evaluating the initial hessian          ...  (Almloef) done
Evaluating the coordinates              ...  done
Calculating the B-matrix                .... done
Calculating the G-matrix                .... done
The number of degrees of freedom        ....   57

    -----------------------------------------------------------------
                    Redundant Internal Coordinates


    -----------------------------------------------------------------
         Definition                    Initial Value    Approx d2E/dq
    -----------------------------------------------------------------
      1. B(C   8,F   1)                  1.3540         0.593501   
      2. B(C   8,O   7)                  1.4217         0.498154   
      3. B(C   8,F   0)                  1.3549         0.591461   
      4. B(C   9,O   7)                  1.4207         0.499848   
      5. B(C  10,F   3)                  1.3556         0.590035   
      6. B(C  10,C   8)                  1.5052         0.409204   
      7. B(C  10,F   2)                  1.3560         0.589235   
      8. B(C  11,F   6)                  1.3498         0.602802   
      9. B(C  11,F   5)                  1.3498         0.602686   
     10. B(C  11,C   9)                  1.5067         0.407024   
     11. B(C  11,F   4)                  1.3510         0.600049   
     12. B(H  12,C   9)                  1.0953         0.353194   
     13. B(H  13,C   9)                  1.0952         0.353245   
     14. B(H  14,C  10)                  1.0933         0.355761   
     15. A(C   8,O   7,C   9)          112.5571         0.396640   
     16. A(F   1,C   8,C  10)          110.0593         0.395722   
     17. A(F   1,C   8,O   7)          109.6064         0.407047   
     18. A(O   7,C   8,C  10)          110.3420         0.385457   
     19. A(F   0,C   8,C  10)          109.6787         0.395483   
     20. A(F   0,C   8,F   1)          107.9693         0.417803   
     21. A(F   0,C   8,O   7)          109.1426         0.406799   
     22. A(H  12,C   9,H  13)          108.8524         0.289084   
     23. A(C  11,C   9,H  13)          109.5217         0.327889   
     24. A(O   7,C   9,H  13)          109.9364         0.337200   
     25. A(C  11,C   9,H  12)          109.5961         0.327881   
     26. A(O   7,C   9,H  12)          109.8442         0.337192   
     27. A(O   7,C   9,C  11)          109.0777         0.385327   
     28. A(F   3,C  10,H  14)          109.1096         0.345669   
     29. A(F   2,C  10,H  14)          108.8104         0.345590   
     30. A(F   2,C  10,F   3)          106.8101         0.417087   
     31. A(F   3,C  10,C   8)          109.5141         0.395316   
     32. A(C   8,C  10,H  14)          112.7309         0.328563   
     33. A(F   2,C  10,C   8)          109.6878         0.395222   
     34. A(F   4,C  11,C   9)          110.6131         0.396113   
     35. A(F   5,C  11,F   6)          108.0963         0.420369   
     36. A(F   4,C  11,F   6)          107.7112         0.420040   
     37. A(F   4,C  11,F   5)          107.7371         0.420026   
     38. A(F   6,C  11,C   9)          111.2635         0.396432   
     39. A(F   5,C  11,C   9)          111.2676         0.396418   
     40. D(F   1,C   8,O   7,C   9)     58.6402         0.019614   
     41. D(F   0,C   8,O   7,C   9)    -59.4143         0.019614   
     42. D(C  10,C   8,O   7,C   9)    179.9982         0.019614   
     43. D(H  13,C   9,O   7,C   8)    -59.2366         0.019752   
     44. D(H  12,C   9,O   7,C   8)     60.5210         0.019752   
     45. D(C  11,C   9,O   7,C   8)   -179.3404         0.019752   
     46. D(F   2,C  10,C   8,F   0)    178.2766         0.013266   
     47. D(F   3,C  10,C   8,O   7)   -178.3733         0.013266   
     48. D(F   3,C  10,C   8,F   1)    -57.2848         0.013266   
     49. D(F   3,C  10,C   8,F   0)     61.3607         0.013266   
     50. D(F   2,C  10,C   8,O   7)    -61.4574         0.013266   
     51. D(F   2,C  10,C   8,F   1)     59.6311         0.013266   
     52. D(F   4,C  11,C   9,H  13)   -179.9158         0.013129   
     53. D(F   4,C  11,C   9,H  12)     60.7346         0.013129   
     54. D(F   4,C  11,C   9,O   7)    -59.5568         0.013129   
     55. D(F   5,C  11,C   9,H  13)     60.3697         0.013129   
     56. D(F   5,C  11,C   9,H  12)    -58.9800         0.013129   
     57. D(F   5,C  11,C   9,O   7)   -179.2714         0.013129   
    -----------------------------------------------------------------

Number of atoms                         .... 15
Number of degrees of freedom            .... 57


         *************************************************************
         *                GEOMETRY OPTIMIZATION CYCLE   1            *
         *************************************************************
---------------------------------
CARTESIAN COORDINATES (ANGSTROEM)
---------------------------------
  F      1.285300   -1.622400    0.560300
  F      1.388800   -0.597900   -1.373800
  F      2.298000    1.670700   -0.140900
  F      3.532300   -0.088000    0.209600
  F     -2.562500    0.280100    1.344900
  F     -3.468700   -0.641500   -0.412300
  F     -2.465500    1.292300   -0.584500
  O     -0.039400    0.178100    0.208700
  C      1.230300   -0.410100   -0.042300
  C     -1.113300   -0.616300   -0.275200
  C      2.329200    0.470500    0.489300
  C     -2.414700    0.084700    0.016300
  H     -1.104200   -1.594100    0.218200
  H     -1.011200   -0.764100   -1.355600
  H      2.253500    0.636300    1.567300

----------------------------
CARTESIAN COORDINATES (A.U.)
----------------------------
  NO LB      ZA    FRAG     MASS         X           Y           Z
   0 F     9.0000    0    18.998    2.428865   -3.065892    1.058814
   1 F     9.0000    0    18.998    2.624452   -1.129867   -2.596106
   2 F     9.0000    0    18.998    4.342591    3.157165   -0.266262
   3 F     9.0000    0    18.998    6.675080   -0.166296    0.396087
   4 F     9.0000    0    18.998   -4.842423    0.529312    2.541493
   5 F     9.0000    0    18.998   -6.554893   -1.212259   -0.779134
   6 F     9.0000    0    18.998   -4.659120    2.442093   -1.104545
   7 O     8.0000    0    15.999   -0.074455    0.336560    0.394386
   8 C     6.0000    0    12.011    2.324930   -0.774977   -0.079935
   9 C     6.0000    0    12.011   -2.103832   -1.164638   -0.520053
  10 C     6.0000    0    12.011    4.401550    0.889116    0.924643
  11 C     6.0000    0    12.011   -4.563122    0.160060    0.030803
  12 H     1.0000    0     1.008   -2.086636   -3.012412    0.412338
  13 H     1.0000    0     1.008   -1.910891   -1.443940   -2.561713
  14 H     1.0000    0     1.008    4.258498    1.202433    2.961768

--------------------------------
INTERNAL COORDINATES (ANGSTROEM)
--------------------------------
 F      0   0   0     0.000000000000     0.00000000     0.00000000
 F      1   0   0     2.191131057240     0.00000000     0.00000000
 F      2   1   0     2.737377031028    90.32221911     0.00000000
 F      3   2   1     2.177009974713    65.87822430    57.47134963
 F      1   2   3     4.363561418154    89.80003295    81.40692274
 F      5   1   2     2.181352066953    92.13639085    60.38889849
 F      5   1   2     2.180949838946    90.23279504     0.27539853
 O      1   2   3     2.262797582640    61.21372454    63.40901423
 C      2   1   3     1.353987939385    36.02974168   332.88082369
 C      8   1   2     1.420736351333    92.89588178    91.36341887
 C      4   3   2     1.355582513165    36.60073560   290.26676087
 C      7   5   1     1.349755177801    36.16371501    54.82331469
 H     10   8   1     1.095271295159   109.84416045    31.33842367
 H     10   8   1     1.095232126081   109.93641604   271.58082554
 H     11   4   3     1.093299652428   109.10960233   242.53891516

---------------------------
INTERNAL COORDINATES (A.U.)
---------------------------
 F      0   0   0     0.000000000000     0.00000000     0.00000000
 F      1   0   0     4.140637621712     0.00000000     0.00000000
 F      2   1   0     5.172892913929    90.32221911     0.00000000
 F      3   2   1     4.113952643022    65.87822430    57.47134963
 F      1   2   3     8.245936048856    89.80003295    81.40692274
 F      5   1   2     4.122158008204    92.13639085    60.38889849
 F      5   1   2     4.121397907428    90.23279504     0.27539853
 O      1   2   3     4.276067727688    61.21372454    63.40901423
 C      2   1   3     2.558666394070    36.02974168   332.88082369
 C      8   1   2     2.684802612527    92.89588178    91.36341887
 C      4   3   2     2.561679701815    36.60073560   290.26676087
 C      7   5   1     2.550667633886    36.16371501    54.82331469
 H     10   8   1     2.069762790196   109.84416045    31.33842367
 H     10   8   1     2.069688771365   109.93641604   271.58082554
 H     11   4   3     2.066036925401   109.10960233   242.53891516

---------------------
BASIS SET INFORMATION
---------------------
There are 4 groups of distinct atoms

 Group   1 Type F   : 12s6p3d1f contracted to 5s4p3d1f pattern {63111/3111/111/1}
 Group   2 Type O   : 12s6p3d1f contracted to 5s4p3d1f pattern {63111/3111/111/1}
 Group   3 Type C   : 12s6p3d1f contracted to 5s4p3d1f pattern {63111/3111/111/1}
 Group   4 Type H   : 6s3p1d contracted to 4s3p1d pattern {3111/111/1}

Atom   0F    basis set group =>   1
Atom   1F    basis set group =>   1
Atom   2F    basis set group =>   1
Atom   3F    basis set group =>   1
Atom   4F    basis set group =>   1
Atom   5F    basis set group =>   1
Atom   6F    basis set group =>   1
Atom   7O    basis set group =>   2
Atom   8C    basis set group =>   3
Atom   9C    basis set group =>   3
Atom  10C    basis set group =>   3
Atom  11C    basis set group =>   3
Atom  12H    basis set group =>   4
Atom  13H    basis set group =>   4
Atom  14H    basis set group =>   4
---------------------------------
AUXILIARY/J BASIS SET INFORMATION
---------------------------------
There are 4 groups of distinct atoms

 Group   1 Type F   : 12s5p4d2f1g contracted to 6s4p3d1f1g pattern {711111/2111/211/2/1}
 Group   2 Type O   : 12s5p4d2f1g contracted to 6s4p3d1f1g pattern {711111/2111/211/2/1}
 Group   3 Type C   : 12s5p4d2f1g contracted to 6s4p3d1f1g pattern {711111/2111/211/2/1}
 Group   4 Type H   : 5s2p1d contracted to 3s1p1d pattern {311/2/1}

Atom   0F    basis set group =>   1
Atom   1F    basis set group =>   1
Atom   2F    basis set group =>   1
Atom   3F    basis set group =>   1
Atom   4F    basis set group =>   1
Atom   5F    basis set group =>   1
Atom   6F    basis set group =>   1
Atom   7O    basis set group =>   2
Atom   8C    basis set group =>   3
Atom   9C    basis set group =>   3
Atom  10C    basis set group =>   3
Atom  11C    basis set group =>   3
Atom  12H    basis set group =>   4
Atom  13H    basis set group =>   4
Atom  14H    basis set group =>   4
------------------------------------------------------------------------------
                             ORCA STARTUP CALCULATIONS
                           -- RI-GTO INTEGRALS CHOSEN --
------------------------------------------------------------------------------
------------------------------------------------------------------------------
                   ___                                                        
                  /   \      - P O W E R E D   B Y -                         
                 /     \                                                     
                 |  |  |   _    _      __       _____    __    __             
                 |  |  |  | |  | |    /  \     |  _  \  |  |  /  |          
                  \  \/   | |  | |   /    \    | | | |  |  | /  /          
                 / \  \   | |__| |  /  /\  \   | |_| |  |  |/  /          
                |  |  |   |  __  | /  /__\  \  |    /   |      \           
                |  |  |   | |  | | |   __   |  |    \   |  |\   \          
                \     /   | |  | | |  |  |  |  | |\  \  |  | \   \       
                 \___/    |_|  |_| |__|  |__|  |_| \__\ |__|  \__/        
                                                                              
                      - O R C A' S   B I G   F R I E N D -                    
                                      &                                       
                       - I N T E G R A L  F E E D E R -                       
                                                                              
 v1 FN, 2020, v2 2021, v3 2022-2024                                           
------------------------------------------------------------------------------


----------------------
SHARK INTEGRAL PACKAGE
----------------------

Number of atoms                             ...     15
Number of basis functions                   ...    522
Number of shells                            ...    180
Maximum angular momentum                    ...      3
Integral batch strategy                     ... SHARK/LIBINT Hybrid
RI-J (if used) integral strategy            ... SPLIT-RIJ (Revised 2003 algorithm where possible)
Printlevel                                  ...      1
Contraction scheme used                     ... SEGMENTED contraction
Prescreening option                         ... SCHWARTZ
   Thresh                                   ... 2.500e-11
   Tcut                                     ... 2.500e-12
   Tpresel                                  ... 2.500e-12 
Coulomb Range Separation                    ... NOT USED
Exchange Range Separation                   ... NOT USED
Multipole approximations                    ... NOT USED
Finite Nucleus Model                        ... NOT USED
CABS basis                                  ... NOT available
Auxiliary Coulomb fitting basis             ... AVAILABLE
   # of basis functions in Aux-J            ...    621
   # of shells in Aux-J                     ...    195
   Maximum angular momentum in Aux-J        ...      4
Auxiliary J/K fitting basis                 ... NOT available
Auxiliary Correlation fitting basis         ... NOT available
Auxiliary 'external' fitting basis          ... NOT available

Checking pre-screening integrals            ... done (  0.0 sec) Dimension = 180
   => SHARK Basis and OBASIS are compatible. Storing Pre-screening
Shell pair information
Shell pair cut-off parameter TPreSel        ...   2.5e-12
Total number of shell pairs                 ...     16290
Shell pairs after pre-screening             ...     13436
Total number of primitive shell pairs       ...     43626
Primitive shell pairs kept                  ...     26735
          la=0 lb=0:   2157 shell pairs
          la=1 lb=0:   3538 shell pairs
          la=1 lb=1:   1472 shell pairs
          la=2 lb=0:   2209 shell pairs
          la=2 lb=1:   1851 shell pairs
          la=2 lb=2:    579 shell pairs
          la=3 lb=0:    674 shell pairs
          la=3 lb=1:    560 shell pairs
          la=3 lb=2:    340 shell pairs
          la=3 lb=3:     56 shell pairs

Checking whether 4 symmetric matrices of dimension 522 fit in memory
:Max Core in MB      =   4096.00
 MB in use           =     19.80
 MB left             =   4076.20
 MB needed           =      4.17
 Data fit in memory  = YES
Calculating RI/J V-Matrix + Cholesky decomp.... done (  0.1 sec)
Calculating Nuclear repulsion               ... done (  0.0 sec) ENN=    840.796475296706 Eh

Diagonalization of the overlap matrix:
Smallest eigenvalue                        ... 1.978e-05
Time for diagonalization                   ...    0.053 sec
Threshold for overlap eigenvalues          ... 1.000e-07
Number of eigenvalues below threshold      ... 0
Time for construction of square roots      ...    0.040 sec
Total time needed                          ...    0.095 sec

-------------------
DFT GRID GENERATION
-------------------

General Integration Accuracy     IntAcc      ... 4.388
Radial Grid Type                 RadialGrid  ... OptM3 with GC (2021)
Angular Grid (max. ang.)         AngularGrid ... 4 (Lebedev-302)
Angular grid pruning method      GridPruning ... 4 (adaptive)
Weight generation scheme         WeightScheme... mBecke (2022)
Basis function cutoff            BFCut       ... 1.0000e-11
Integration weight cutoff        WCut        ... 1.0000e-14
Partially contracted basis set               ... off
Rotationally invariant grid construction     ... off
Angular grids for H and He will be reduced by one unit
Diffuse basis detected: some atoms will have their outermost
                        angular grid increased by 1.

Total number of grid points                  ...    86688
Total number of batches                      ...     1361
Average number of points per batch           ...       63
Average number of grid points per atom       ...     5779

--------------------
COSX GRID GENERATION
--------------------

GRIDX 1
-------
General Integration Accuracy     IntAcc      ... 3.816
Radial Grid Type                 RadialGrid  ... OptM3 with GC (2021)
Angular Grid (max. ang.)         AngularGrid ... 1 (Lebedev-50)
Angular grid pruning method      GridPruning ... 4 (adaptive)
Weight generation scheme         WeightScheme... mBecke (2022)
Basis function cutoff            BFCut       ... 1.0000e-11
Integration weight cutoff        WCut        ... 1.0000e-14
Partially contracted basis set               ... on
Rotationally invariant grid construction     ... off
Angular grids for H and He will be reduced by one unit
Diffuse basis detected: some atoms will have their outermost
                        angular grid increased by 1.

Total number of grid points                  ...    10954
Total number of batches                      ...       94
Average number of points per batch           ...      116
Average number of grid points per atom       ...      730
UseSFitting                                  ... on

GRIDX 2
-------
General Integration Accuracy     IntAcc      ... 4.020
Radial Grid Type                 RadialGrid  ... OptM3 with GC (2021)
Angular Grid (max. ang.)         AngularGrid ... 2 (Lebedev-110)
Angular grid pruning method      GridPruning ... 4 (adaptive)
Weight generation scheme         WeightScheme... mBecke (2022)
Basis function cutoff            BFCut       ... 1.0000e-11
Integration weight cutoff        WCut        ... 1.0000e-14
Partially contracted basis set               ... on
Rotationally invariant grid construction     ... off
Angular grids for H and He will be reduced by one unit
Diffuse basis detected: some atoms will have their outermost
                        angular grid increased by 1.

Total number of grid points                  ...    28577
Total number of batches                      ...      233
Average number of points per batch           ...      122
Average number of grid points per atom       ...     1905
UseSFitting                                  ... on

GRIDX 3
-------
General Integration Accuracy     IntAcc      ... 4.338
Radial Grid Type                 RadialGrid  ... OptM3 with GC (2021)
Angular Grid (max. ang.)         AngularGrid ... 3 (Lebedev-194)
Angular grid pruning method      GridPruning ... 4 (adaptive)
Weight generation scheme         WeightScheme... mBecke (2022)
Basis function cutoff            BFCut       ... 1.0000e-11
Integration weight cutoff        WCut        ... 1.0000e-14
Partially contracted basis set               ... on
Rotationally invariant grid construction     ... off
Angular grids for H and He will be reduced by one unit
Diffuse basis detected: some atoms will have their outermost
                        angular grid increased by 1.

Total number of grid points                  ...    62273
Total number of batches                      ...      493
Average number of points per batch           ...      126
Average number of grid points per atom       ...     4152
UseSFitting                                  ... on
Grids setup in   3.3 sec
Initializing property integral containers    ... done (  0.0 sec)

SHARK setup successfully completed in  -1.3 seconds

Maximum memory used throughout the entire STARTUP-calculation: 70.0 MB
-------------------------------------------------------------------------------
                                 ORCA GUESS
                   Start orbitals & Density for SCF / CASSCF
-------------------------------------------------------------------------------

------------
SCF SETTINGS
------------
Hamiltonian:
 Density Functional     Method          .... DFT(GTOs)
 Exchange Functional    Exchange        .... B88
   X-Alpha parameter    XAlpha          ....  0.666667
   Becke's b parameter  XBeta           ....  0.004200
 Correlation Functional Correlation     .... LYP
 LDA part of GGA corr.  LDAOpt          .... VWN-5
 Gradients option       PostSCFGGA      .... off
 Hybrid DFT is turned on
   Fraction HF Exchange ScalHFX         ....  0.200000
   Scaling of DF-GGA-X  ScalDFX         ....  0.720000
   Scaling of DF-GGA-C  ScalDFC         ....  0.810000
   Scaling of DF-LDA-C  ScalLDAC        ....  1.000000
   Perturbative correction              ....  0.000000
   NL short-range parameter             ....  4.800000
 RI-approximation to the Coulomb term is turned on
   Number of AuxJ basis functions       .... 621
   RIJ-COSX (HFX calculated with COS-X)).... on


General Settings:
 Integral files         IntName         .... HFE_347pcf2_anti
 Hartree-Fock type      HFTyp           .... RHF
 Total Charge           Charge          ....    0
 Multiplicity           Mult            ....    1
 Number of Electrons    NEL             ....   98
 Basis Dimension        Dim             ....  522
 Nuclear Repulsion      ENuc            ....    840.7964752967 Eh

Convergence Acceleration:
 AO-DIIS                CNVDIIS         .... on
   Start iteration      DIISMaxIt       ....    12
   Startup error        DIISStart       ....  0.200000
   # of expansion vecs  DIISMaxEq       ....     5
   Bias factor          DIISBfac        ....   1.050
   Max. coefficient     DIISMaxC        ....  10.000
 MO-DIIS                CNVKDIIS        .... off
 Trust-Rad. Augm. Hess. CNVTRAH         .... auto
   Auto Start mean grad. ratio tolernc. ....  1.125000
   Auto Start start iteration           ....    50
   Auto Start num. interpolation iter.  ....    10
   Max. Number of Micro iterations      ....    24
   Max. Number of Macro iterations      .... Maxiter - #DIIS iter
   Number of Davidson start vectors     ....     2
   Converg. threshold    (grad. norm)   ....   1.000e-05
   Grad. Scal. Fac. for Micro threshold ....   0.100
   Minimum threshold for Micro iter.    ....   1.000e-02
   NR start threshold (gradient norm)   ....   1.000e-04
   Initial trust radius                 ....   0.400
   Minimum AH scaling param. (alpha)    ....   1.000
   Maximum AH scaling param. (alpha)    .... 1000.000
   Quad. conv. algorithm                .... NR
   White noise on init. David. guess    .... on
   Maximum white noise                  ....   0.010
   Pseudo random numbers                .... off
   Inactive MOs                         .... canonical
   Orbital update algorithm             .... Taylor
   Preconditioner                       .... Diag
   Full preconditioner red. dimension   ....   250
 SOSCF                 CNVSOSCF           .... on
   Start iteration     SOSCFMaxIt         ....   150
   Startup grad/error  SOSCFStart         ....  0.003300
   Hessian update      SOSCFHessUp        .... L-BFGS
   Autom. constraints  SOSCFAutoConstrain .... off
 Level Shifting         CNVShift        .... on
   Level shift para.    LevelShift      ....    0.2500
   Turn off err/grad.   ShiftErr        ....    0.0010
 Zerner damping         CNVZerner       .... off
 Static damping         CNVDamp         .... on
   Fraction old density DampFac         ....    0.7000
   Max. Damping (<1)    DampMax         ....    0.9800
   Min. Damping (>=0)   DampMin         ....    0.0000
   Turn off err/grad.   DampErr         ....    0.1000

SCF Procedure:
 Maximum # iterations   MaxIter         ....   125
 SCF integral mode      SCFMode         .... Direct
   Integral package                     .... SHARK and LIBINT hybrid scheme
 Reset frequency        DirectResetFreq ....    20
 Integral Threshold     Thresh          ....  2.500e-11 Eh
 Primitive CutOff       TCut            ....  2.500e-12 Eh

Convergence Tolerance:
 Convergence Check Mode ConvCheckMode   .... Total+1el-Energy
 Convergence forced     ConvForced      .... 0
 Energy Change          TolE            ....  1.000e-08 Eh
 1-El. energy change                    ....  1.000e-05 Eh
 Orbital Gradient       TolG            ....  1.000e-05
 Orbital Rotation angle TolX            ....  1.000e-05
 DIIS Error             TolErr          ....  5.000e-07

------------------------------
INITIAL GUESS: MODEL POTENTIAL
------------------------------
Loading Hartree-Fock densities                     ... done
Calculating cut-offs                               ... done
Initializing the effective Hamiltonian             ... done
Setting up the integral package (SHARK)            ... done
Starting the Coulomb interaction                   ... done (   6.0 sec)
Making the grid                                    ... done (  -5.1 sec)
Mapping shells                                     ... done
Starting the XC term evaluation                    ... done (   0.9 sec)
  promolecular density results
     # of electrons  =     97.995540806
     EX              =   -100.069261070
     EC              =     -3.642491992
     EX+EC           =   -103.711753062
Transforming the Hamiltonian                       ... done (   0.0 sec)
Diagonalizing the Hamiltonian                      ... done (   0.1 sec)
Back transforming the eigenvectors                 ... done (   0.0 sec)
Now organizing SCF variables                       ... done
                      ------------------
                      INITIAL GUESS DONE (   1.9 sec)
                      ------------------
             **** ENERGY FILE WAS UPDATED (HFE_347pcf2_anti.en.tmp) ****
Finished Guess after   2.2 sec
Maximum memory used throughout the entire GUESS-calculation: 52.0 MB

-------------------------------------------------------------------------------------------
                                      ORCA LEAN-SCF
                              memory conserving SCF solver
-------------------------------------------------------------------------------------------

----------------------------------------D-I-I-S--------------------------------------------
Iteration    Energy (Eh)           Delta-E    RMSDP     MaxDP     DIISErr   Damp  Time(sec)
-------------------------------------------------------------------------------------------
               ***  Starting incremental Fock matrix formation  ***
    1    -928.1102558780881964     0.00e+00  1.02e-03  7.50e-02  2.29e-01  0.700  31.6
    2    -928.2173922889411415    -1.07e-01  5.97e-04  5.72e-02  8.88e-02  0.700  13.6
                               ***Turning on AO-DIIS***
    3    -928.2532737247469186    -3.59e-02  2.96e-04  3.24e-02  2.50e-02  0.700  18.6
    4    -928.2773731295163770    -2.41e-02  6.17e-04  6.40e-02  1.29e-02  0.000   7.1
                              *** Initializing SOSCF ***
---------------------------------------S-O-S-C-F--------------------------------------
Iteration    Energy (Eh)           Delta-E    RMSDP     MaxDP     MaxGrad    Time(sec)
--------------------------------------------------------------------------------------
    5    -928.3327453132582150    -5.54e-02  6.15e-05  4.68e-03  2.49e-03    13.0
               *** Restarting incremental Fock matrix formation ***
    6    -928.3328443836945780    -9.91e-05  3.50e-05  3.70e-03  2.54e-04    31.8
    7    -928.3328440663084393     3.17e-07  1.02e-05  7.26e-04  2.41e-04    28.2
    8    -928.3328501498705236    -6.08e-06  7.79e-06  9.21e-04  4.18e-05    15.4
    9    -928.3328501844088123    -3.45e-08  1.42e-06  7.95e-05  3.30e-05    20.1
   10    -928.3328502777234235    -9.33e-08  1.82e-06  1.61e-04  1.14e-05   249.9
   11    -928.3328502755040290     2.22e-09  1.08e-06  9.31e-05  9.46e-06    17.3
                 **** Energy Check signals convergence ****

               *****************************************************
               *                     SUCCESS                       *
               *           SCF CONVERGED AFTER  11 CYCLES          *
               *****************************************************

Recomputing exchange energy using gridx3       ... done (   58.075 sec)
Old exchange energy                            :    -20.088574574 Eh
New exchange energy                            :    -20.088627816 Eh
Exchange energy change after final integration :     -0.000053241 Eh
Total energy after final integration           :   -928.332903519 Eh
             **** ENERGY FILE WAS UPDATED (HFE_347pcf2_anti.en.tmp) ****

----------------
TOTAL SCF ENERGY
----------------

Total Energy       :       -928.33290351918458 Eh          -25261.22256 eV

Components:
Nuclear Repulsion  :        840.79647529670603 Eh           22879.23525 eV
Electronic Energy  :      -1769.12932557443855 Eh          -48140.45636 eV
One Electron Energy:      -2959.23657275473670 Eh          -80524.92095 eV
Two Electron Energy:       1190.10724718029815 Eh           32384.46459 eV

Virial components:
Potential Energy   :      -1854.00774673228511 Eh          -50450.11562 eV
Kinetic Energy     :        925.67484321310053 Eh           25188.89306 eV
Virial Ratio       :          2.00287148378891

DFT components:
N(Alpha)           :       49.000044074411 electrons
N(Beta)            :       49.000044074411 electrons
N(Total)           :       98.000088148822 electrons
E(X)               :      -80.038445145543 Eh       
E(C)               :       -4.260655825227 Eh       
E(XC)              :      -84.299100970770 Eh       

---------------
SCF CONVERGENCE
---------------

  Last Energy change         ...   -2.2194e-09  Tolerance :   1.0000e-08
  Last MAX-Density change    ...    9.3054e-05  Tolerance :   1.0000e-07
  Last RMS-Density change    ...    1.0830e-06  Tolerance :   5.0000e-09
  Last DIIS Error            ...    2.4885e-03  Tolerance :   5.0000e-07
  Last Orbital Gradient      ...    9.4586e-06  Tolerance :   1.0000e-05
  Last Orbital Rotation      ...    5.6878e-06  Tolerance :   1.0000e-05


----------------
ORBITAL ENERGIES
----------------

  NO   OCC          E(Eh)            E(eV) 
   0   2.0000     -24.739385      -673.1929 
   1   2.0000     -24.735390      -673.0842 
   2   2.0000     -24.733516      -673.0332 
   3   2.0000     -24.726221      -672.8347 
   4   2.0000     -24.725871      -672.8251 
   5   2.0000     -24.722698      -672.7388 
   6   2.0000     -24.719681      -672.6567 
   7   2.0000     -19.201953      -522.5117 
   8   2.0000     -10.444876      -284.2195 
   9   2.0000     -10.433260      -283.9034 
  10   2.0000     -10.376330      -282.3543 
  11   2.0000     -10.277969      -279.6778 
  12   2.0000      -1.331051       -36.2197 
  13   2.0000      -1.321788       -35.9677 
  14   2.0000      -1.289844       -35.0984 
  15   2.0000      -1.253108       -34.0988 
  16   2.0000      -1.246984       -33.9321 
  17   2.0000      -1.242377       -33.8068 
  18   2.0000      -1.232589       -33.5404 
  19   2.0000      -1.103927       -30.0394 
  20   2.0000      -0.838108       -22.8061 
  21   2.0000      -0.784200       -21.3392 
  22   2.0000      -0.700278       -19.0555 
  23   2.0000      -0.683814       -18.6075 
  24   2.0000      -0.630416       -17.1545 
  25   2.0000      -0.626638       -17.0517 
  26   2.0000      -0.621881       -16.9223 
  27   2.0000      -0.615045       -16.7362 
  28   2.0000      -0.600598       -16.3431 
  29   2.0000      -0.577072       -15.7029 
  30   2.0000      -0.575705       -15.6657 
  31   2.0000      -0.570562       -15.5258 
  32   2.0000      -0.519746       -14.1430 
  33   2.0000      -0.500970       -13.6321 
  34   2.0000      -0.491233       -13.3671 
  35   2.0000      -0.488625       -13.2962 
  36   2.0000      -0.484427       -13.1819 
  37   2.0000      -0.468701       -12.7540 
  38   2.0000      -0.462517       -12.5857 
  39   2.0000      -0.454307       -12.3623 
  40   2.0000      -0.452252       -12.3064 
  41   2.0000      -0.442233       -12.0338 
  42   2.0000      -0.440689       -11.9918 
  43   2.0000      -0.438403       -11.9296 
  44   2.0000      -0.432114       -11.7584 
  45   2.0000      -0.429996       -11.7008 
  46   2.0000      -0.395596       -10.7647 
  47   2.0000      -0.385451       -10.4887 
  48   2.0000      -0.349320        -9.5055 
  49   0.0000      -0.009272        -0.2523 
  50   0.0000       0.002935         0.0799 
  51   0.0000       0.012957         0.3526 
  52   0.0000       0.017313         0.4711 
  53   0.0000       0.033039         0.8990 
  54   0.0000       0.043780         1.1913 
  55   0.0000       0.047479         1.2920 
  56   0.0000       0.063292         1.7223 
  57   0.0000       0.071706         1.9512 
  58   0.0000       0.073587         2.0024 
  59   0.0000       0.082355         2.2410 
*Only the first 10 virtual orbitals were printed.

                    ********************************
                    * MULLIKEN POPULATION ANALYSIS *
                    ********************************

-----------------------
MULLIKEN ATOMIC CHARGES
-----------------------
   0 F :   -0.496676
   1 F :   -0.505637
   2 F :   -0.462735
   3 F :   -0.467970
   4 F :   -0.470977
   5 F :   -0.459344
   6 F :   -0.466016
   7 O :   -0.766181
   8 C :    1.466374
   9 C :   -0.018564
  10 C :    0.857431
  11 C :    1.653932
  12 H :    0.064674
  13 H :    0.062639
  14 H :    0.009049
Sum of atomic charges:    0.0000000

--------------------------------
MULLIKEN REDUCED ORBITAL CHARGES
--------------------------------
  0 F s       :     4.099288  s :     4.099288
      pz      :     1.868929  p :     5.373245
      px      :     1.970564
      py      :     1.533752
      dz2     :     0.004504  d :     0.023479
      dxz     :     0.001947
      dyz     :     0.005556
      dx2y2   :     0.004479
      dxy     :     0.006993
      f0      :     0.000068  f :     0.000664
      f+1     :     0.000004
      f-1     :     0.000130
      f+2     :     0.000168
      f-2     :     0.000066
      f+3     :     0.000109
      f-3     :     0.000119

  1 F s       :     4.104315  s :     4.104315
      pz      :     1.464922  p :     5.376135
      px      :     1.965318
      py      :     1.945895
      dz2     :     0.006418  d :     0.024512
      dxz     :     0.007993
      dyz     :     0.007532
      dx2y2   :     0.001345
      dxy     :     0.001224
      f0      :     0.000296  f :     0.000675
      f+1     :     0.000172
      f-1     :     0.000167
      f+2     :     0.000017
      f-2     :     0.000020
      f+3     :     0.000002
      f-3     :     0.000001

  2 F s       :     4.085074  s :     4.085074
      pz      :     1.845428  p :     5.354276
      px      :     1.958397
      py      :     1.550450
      dz2     :     0.005124  d :     0.022733
      dxz     :     0.001472
      dyz     :     0.004665
      dx2y2   :     0.004894
      dxy     :     0.006578
      f0      :     0.000068  f :     0.000652
      f+1     :     0.000001
      f-1     :     0.000138
      f+2     :     0.000161
      f-2     :     0.000064
      f+3     :     0.000100
      f-3     :     0.000121

  3 F s       :     4.099722  s :     4.099722
      pz      :     1.935774  p :     5.344708
      px      :     1.522850
      py      :     1.886084
      dz2     :     0.003023  d :     0.022887
      dxz     :     0.005566
      dyz     :     0.001650
      dx2y2   :     0.006801
      dxy     :     0.005847
      f0      :     0.000058  f :     0.000652
      f+1     :     0.000116
      f-1     :     0.000029
      f+2     :     0.000056
      f-2     :     0.000070
      f+3     :     0.000143
      f-3     :     0.000181

  4 F s       :     4.101819  s :     4.101819
      pz      :     1.460591  p :     5.345568
      px      :     1.946296
      py      :     1.938680
      dz2     :     0.006232  d :     0.022905
      dxz     :     0.007489
      dyz     :     0.006971
      dx2y2   :     0.001080
      dxy     :     0.001133
      f0      :     0.000314  f :     0.000686
      f+1     :     0.000163
      f-1     :     0.000166
      f+2     :     0.000018
      f-2     :     0.000023
      f+3     :     0.000001
      f-3     :     0.000001

  5 F s       :     4.105889  s :     4.105889
      pz      :     1.905885  p :     5.330513
      px      :     1.601115
      py      :     1.823513
      dz2     :     0.003294  d :     0.022259
      dxz     :     0.004462
      dyz     :     0.002741
      dx2y2   :     0.006798
      dxy     :     0.004965
      f0      :     0.000069  f :     0.000683
      f+1     :     0.000085
      f-1     :     0.000042
      f+2     :     0.000051
      f-2     :     0.000135
      f+3     :     0.000140
      f-3     :     0.000160

  6 F s       :     4.103108  s :     4.103108
      pz      :     1.858100  p :     5.339279
      px      :     1.955151
      py      :     1.526029
      dz2     :     0.004391  d :     0.022939
      dxz     :     0.001879
      dyz     :     0.005425
      dx2y2   :     0.004356
      dxy     :     0.006888
      f0      :     0.000071  f :     0.000690
      f+1     :     0.000004
      f-1     :     0.000132
      f+2     :     0.000175
      f-2     :     0.000068
      f+3     :     0.000110
      f-3     :     0.000130

  7 O s       :     3.965677  s :     3.965677
      pz      :     1.854425  p :     4.732833
      px      :     1.185894
      py      :     1.692514
      dz2     :     0.009269  d :     0.065824
      dxz     :     0.014857
      dyz     :     0.008857
      dx2y2   :     0.015584
      dxy     :     0.017257
      f0      :     0.000250  f :     0.001846
      f+1     :     0.000333
      f-1     :     0.000146
      f+2     :     0.000155
      f-2     :     0.000264
      f+3     :     0.000334
      f-3     :     0.000364

  8 C s       :     3.168289  s :     3.168289
      pz      :     0.441516  p :     1.316961
      px      :     0.432013
      py      :     0.443432
      dz2     :     0.028402  d :     0.007824
      dxz     :    -0.057939
      dyz     :    -0.027094
      dx2y2   :     0.035959
      dxy     :     0.028496
      f0      :     0.007148  f :     0.040552
      f+1     :     0.005951
      f-1     :     0.008900
      f+2     :     0.005281
      f-2     :     0.003798
      f+3     :     0.005173
      f-3     :     0.004300

  9 C s       :     3.447969  s :     3.447969
      pz      :     0.927510  p :     2.409875
      px      :     0.678872
      py      :     0.803493
      dz2     :     0.027344  d :     0.149670
      dxz     :     0.045518
      dyz     :     0.002148
      dx2y2   :     0.037303
      dxy     :     0.037358
      f0      :     0.001484  f :     0.011050
      f+1     :     0.001709
      f-1     :     0.000805
      f+2     :     0.001087
      f-2     :     0.001895
      f+3     :     0.002122
      f-3     :     0.001949

 10 C s       :     3.331777  s :     3.331777
      pz      :     0.854496  p :     1.731426
      px      :     0.418107
      py      :     0.458823
      dz2     :     0.034202  d :     0.047694
      dxz     :    -0.034467
      dyz     :    -0.014373
      dx2y2   :     0.021437
      dxy     :     0.040894
      f0      :     0.002703  f :     0.031672
      f+1     :     0.002442
      f-1     :     0.004206
      f+2     :     0.005621
      f-2     :     0.004941
      f+3     :     0.006568
      f-3     :     0.005191

 11 C s       :     3.153456  s :     3.153456
      pz      :     0.401924  p :     1.131585
      px      :     0.342864
      py      :     0.386796
      dz2     :     0.032826  d :     0.012360
      dxz     :    -0.036838
      dyz     :    -0.020117
      dx2y2   :     0.008213
      dxy     :     0.028277
      f0      :     0.007205  f :     0.048667
      f+1     :     0.007629
      f-1     :     0.009844
      f+2     :     0.005968
      f-2     :     0.005907
      f+3     :     0.006604
      f-3     :     0.005510

 12 H s       :     0.903823  s :     0.903823
      pz      :     0.007872  p :     0.028618
      px      :     0.002618
      py      :     0.018128
      dz2     :     0.000783  d :     0.002885
      dxz     :     0.000204
      dyz     :     0.000377
      dx2y2   :     0.000645
      dxy     :     0.000877

 13 H s       :     0.905612  s :     0.905612
      pz      :     0.011133  p :     0.028861
      px      :     0.003736
      py      :     0.013992
      dz2     :     0.000562  d :     0.002887
      dxz     :     0.000946
      dyz     :     0.001199
      dx2y2   :     0.000105
      dxy     :     0.000075

 14 H s       :     0.929770  s :     0.929770
      pz      :     0.030482  p :     0.058074
      px      :     0.013228
      py      :     0.014364
      dz2     :     0.000762  d :     0.003107
      dxz     :     0.001196
      dyz     :     0.000985
      dx2y2   :     0.000065
      dxy     :     0.000099



                     *******************************
                     * LOEWDIN POPULATION ANALYSIS *
                     *******************************

----------------------
LOEWDIN ATOMIC CHARGES
----------------------
   0 F :    0.219150
   1 F :    0.224632
   2 F :    0.197282
   3 F :    0.195674
   4 F :    0.206588
   5 F :    0.208872
   6 F :    0.210350
   7 O :    0.221597
   8 C :   -0.633016
   9 C :    0.016265
  10 C :   -0.318050
  11 C :   -0.677357
  12 H :   -0.026360
  13 H :   -0.025600
  14 H :   -0.020025

-------------------------------
LOEWDIN REDUCED ORBITAL CHARGES
-------------------------------
  0 F s       :     3.549368  s :     3.549368
      pz      :     1.756169  p :     5.140805
      px      :     1.809723
      py      :     1.574913
      dz2     :     0.015558  d :     0.088817
      dxz     :     0.003888
      dyz     :     0.023462
      dx2y2   :     0.023568
      dxy     :     0.022340
      f0      :     0.000181  f :     0.001860
      f+1     :     0.000006
      f-1     :     0.000380
      f+2     :     0.000437
      f-2     :     0.000179
      f+3     :     0.000352
      f-3     :     0.000326

  1 F s       :     3.548224  s :     3.548224
      pz      :     1.523723  p :     5.135702
      px      :     1.804903
      py      :     1.807076
      dz2     :     0.036938  d :     0.089570
      dxz     :     0.024266
      dyz     :     0.024095
      dx2y2   :     0.001896
      dxy     :     0.002375
      f0      :     0.000781  f :     0.001872
      f+1     :     0.000488
      f-1     :     0.000497
      f+2     :     0.000037
      f-2     :     0.000062
      f+3     :     0.000003
      f-3     :     0.000004

  2 F s       :     3.562925  s :     3.562925
      pz      :     1.757578  p :     5.147918
      px      :     1.810954
      py      :     1.579386
      dz2     :     0.019128  d :     0.090052
      dxz     :     0.003556
      dyz     :     0.027104
      dx2y2   :     0.020808
      dxy     :     0.019455
      f0      :     0.000166  f :     0.001823
      f+1     :     0.000002
      f-1     :     0.000473
      f+2     :     0.000426
      f-2     :     0.000155
      f+3     :     0.000296
      f-3     :     0.000305

  3 F s       :     3.563745  s :     3.563745
      pz      :     1.812184  p :     5.148348
      px      :     1.567037
      py      :     1.769126
      dz2     :     0.012605  d :     0.090407
      dxz     :     0.022017
      dyz     :     0.006632
      dx2y2   :     0.026366
      dxy     :     0.022788
      f0      :     0.000169  f :     0.001826
      f+1     :     0.000320
      f-1     :     0.000078
      f+2     :     0.000143
      f-2     :     0.000233
      f+3     :     0.000444
      f-3     :     0.000440

  4 F s       :     3.560673  s :     3.560673
      pz      :     1.525829  p :     5.143891
      px      :     1.809300
      py      :     1.808761
      dz2     :     0.035691  d :     0.086982
      dxz     :     0.024596
      dyz     :     0.023102
      dx2y2   :     0.001002
      dxy     :     0.002592
      f0      :     0.000805  f :     0.001866
      f+1     :     0.000475
      f-1     :     0.000483
      f+2     :     0.000026
      f-2     :     0.000072
      f+3     :     0.000001
      f-3     :     0.000004

  5 F s       :     3.562087  s :     3.562087
      pz      :     1.787503  p :     5.141710
      px      :     1.621058
      py      :     1.733150
      dz2     :     0.013131  d :     0.085470
      dxz     :     0.014410
      dyz     :     0.009676
      dx2y2   :     0.024590
      dxy     :     0.023664
      f0      :     0.000169  f :     0.001860
      f+1     :     0.000249
      f-1     :     0.000130
      f+2     :     0.000119
      f-2     :     0.000356
      f+3     :     0.000407
      f-3     :     0.000432

  6 F s       :     3.560440  s :     3.560440
      pz      :     1.755791  p :     5.140591
      px      :     1.812251
      py      :     1.572549
      dz2     :     0.015230  d :     0.086746
      dxz     :     0.003700
      dyz     :     0.023945
      dx2y2   :     0.021253
      dxy     :     0.022618
      f0      :     0.000192  f :     0.001873
      f+1     :     0.000006
      f-1     :     0.000375
      f+2     :     0.000461
      f-2     :     0.000170
      f+3     :     0.000346
      f-3     :     0.000324

  7 O s       :     3.187636  s :     3.187636
      pz      :     1.602670  p :     4.316237
      px      :     1.208444
      py      :     1.505124
      dz2     :     0.040921  d :     0.268039
      dxz     :     0.050350
      dyz     :     0.023463
      dx2y2   :     0.082178
      dxy     :     0.071127
      f0      :     0.000459  f :     0.006490
      f+1     :     0.001035
      f-1     :     0.000467
      f+2     :     0.000467
      f-2     :     0.001125
      f+3     :     0.001560
      f-3     :     0.001378

  8 C s       :     2.549178  s :     2.549178
      pz      :     0.755536  p :     2.428930
      px      :     0.875827
      py      :     0.797567
      dz2     :     0.345412  d :     1.440279
      dxz     :     0.247083
      dyz     :     0.295223
      dx2y2   :     0.265784
      dxy     :     0.286777
      f0      :     0.039193  f :     0.214629
      f+1     :     0.031215
      f-1     :     0.043953
      f+2     :     0.027335
      f-2     :     0.021353
      f+3     :     0.026704
      f-3     :     0.024876

  9 C s       :     2.541319  s :     2.541319
      pz      :     0.929269  p :     2.618835
      px      :     0.809585
      py      :     0.879981
      dz2     :     0.162072  d :     0.754974
      dxz     :     0.124818
      dyz     :     0.102590
      dx2y2   :     0.181509
      dxy     :     0.183984
      f0      :     0.007818  f :     0.068606
      f+1     :     0.009943
      f-1     :     0.004305
      f+2     :     0.008134
      f-2     :     0.012875
      f+3     :     0.012325
      f-3     :     0.013207

 10 C s       :     2.562053  s :     2.562053
      pz      :     0.912163  p :     2.450561
      px      :     0.783203
      py      :     0.755194
      dz2     :     0.239852  d :     1.138972
      dxz     :     0.150553
      dyz     :     0.193938
      dx2y2   :     0.276393
      dxy     :     0.278236
      f0      :     0.014186  f :     0.166464
      f+1     :     0.012677
      f-1     :     0.021209
      f+2     :     0.028492
      f-2     :     0.025006
      f+3     :     0.034044
      f-3     :     0.030852

 11 C s       :     2.552730  s :     2.552730
      pz      :     0.748453  p :     2.391069
      px      :     0.866975
      py      :     0.775641
      dz2     :     0.351057  d :     1.486322
      dxz     :     0.254295
      dyz     :     0.297948
      dx2y2   :     0.277835
      dxy     :     0.305187
      f0      :     0.040365  f :     0.247237
      f+1     :     0.036987
      f-1     :     0.048020
      f+2     :     0.030002
      f-2     :     0.029782
      f+3     :     0.033279
      f-3     :     0.028801

 12 H s       :     0.760703  s :     0.760703
      pz      :     0.074636  p :     0.232550
      px      :     0.050083
      py      :     0.107831
      dz2     :     0.006393  d :     0.033107
      dxz     :     0.001416
      dyz     :     0.009399
      dx2y2   :     0.007705
      dxy     :     0.008194

 13 H s       :     0.759747  s :     0.759747
      pz      :     0.123985  p :     0.232732
      px      :     0.051459
      py      :     0.057288
      dz2     :     0.012560  d :     0.033120
      dxz     :     0.008994
      dyz     :     0.010665
      dx2y2   :     0.000251
      dxy     :     0.000649

 14 H s       :     0.782654  s :     0.782654
      pz      :     0.125682  p :     0.205916
      px      :     0.039679
      py      :     0.040555
      dz2     :     0.013694  d :     0.031455
      dxz     :     0.008253
      dyz     :     0.008757
      dx2y2   :     0.000210
      dxy     :     0.000541



                      *****************************
                      * MAYER POPULATION ANALYSIS *
                      *****************************

  NA   - Mulliken gross atomic population
  ZA   - Total nuclear charge
  QA   - Mulliken gross atomic charge
  VA   - Mayer's total valence
  BVA  - Mayer's bonded valence
  FA   - Mayer's free valence

  ATOM       NA         ZA         QA         VA         BVA        FA
  0 F      9.4967     9.0000    -0.4967     0.6478     0.6478    -0.0000
  1 F      9.5056     9.0000    -0.5056     0.6942     0.6942    -0.0000
  2 F      9.4627     9.0000    -0.4627     0.7165     0.7165    -0.0000
  3 F      9.4680     9.0000    -0.4680     0.6695     0.6695    -0.0000
  4 F      9.4710     9.0000    -0.4710     0.6821     0.6821     0.0000
  5 F      9.4593     9.0000    -0.4593     0.6098     0.6098    -0.0000
  6 F      9.4660     9.0000    -0.4660     0.6811     0.6811    -0.0000
  7 O      8.7662     8.0000    -0.7662     1.6338     1.6338    -0.0000
  8 C      4.5336     6.0000     1.4664     2.3822     2.3822    -0.0000
  9 C      6.0186     6.0000    -0.0186     3.4399     3.4399     0.0000
 10 C      5.1426     6.0000     0.8574     3.0095     3.0095     0.0000
 11 C      4.3461     6.0000     1.6539     2.4185     2.4185    -0.0000
 12 H      0.9353     1.0000     0.0647     0.9569     0.9569     0.0000
 13 H      0.9374     1.0000     0.0626     0.9665     0.9665    -0.0000
 14 H      0.9910     1.0000     0.0090     1.0395     1.0395     0.0000

  Mayer bond orders larger than 0.100000
B(  0-F ,  8-C ) :   0.4927 B(  1-F ,  8-C ) :   0.5688 B(  2-F , 10-C ) :   0.6999 
B(  3-F , 10-C ) :   0.6208 B(  4-F , 11-C ) :   0.5705 B(  5-F ,  9-C ) :  -0.1024 
B(  5-F , 11-C ) :   0.6099 B(  6-F , 11-C ) :   0.5658 B(  7-O ,  8-C ) :   0.7583 
B(  7-O ,  9-C ) :   0.7193 B(  8-C , 10-C ) :   0.7761 B(  9-C , 11-C ) :   0.7162 
B(  9-C , 12-H ) :   1.0132 B(  9-C , 13-H ) :   1.0165 B( 10-C , 14-H ) :   1.0751 


-------
TIMINGS
-------

Total SCF time: 0 days 0 hours 8 min 40 sec 

Total time                  ....     520.508 sec
Sum of individual times     ....     505.185 sec  ( 97.1%)

SCF preparation             ....       0.295 sec  (  0.1%)
Fock matrix formation       ....     492.803 sec  ( 94.7%)
  Startup                   ....       0.026 sec  (  0.0% of F)
  Split-RI-J                ....       7.017 sec  (  1.4% of F)
  Chain of spheres X        ....     482.607 sec  ( 97.9% of F)
  XC integration            ....      17.668 sec  (  3.6% of F)
    XC Preparation          ....       0.000 sec  (  0.0% of XC)
    Basis function eval.    ....      11.303 sec  ( 64.0% of XC)
    XC-Functional eval.     ....       5.874 sec  ( 33.2% of XC)
    XC-Potential eval.      ....       7.847 sec  ( 44.4% of XC)
Diagonalization             ....       0.000 sec  (  0.0%)
Density matrix formation    ....       0.136 sec  (  0.0%)
Total Energy calculation    ....       0.029 sec  (  0.0%)
Population analysis         ....       0.099 sec  (  0.0%)
Orbital Transformation      ....       0.201 sec  (  0.0%)
Orbital Orthonormalization  ....       0.000 sec  (  0.0%)
DIIS solution               ....       6.017 sec  (  1.2%)
SOSCF solution              ....       5.605 sec  (  1.1%)
Finished LeanSCF after 520.7 sec

Maximum memory used throughout the entire LEANSCF-calculation: 75.8 MB

------------------------------------------------------------------------------
                         ORCA PROPERTY INTEGRAL CALCULATIONS
------------------------------------------------------------------------------

GBWName                                   ... HFE_347pcf2_anti.gbw
Number of atoms                           ...     15
Number of basis functions                 ...    522
Max core memory                           ...   4096 MB

Dipole integrals                          ... YES
Quadrupole integrals                      ...  NO
Linear momentum integrals                 ...  NO
Angular momentum integrals                ...  NO
Higher moments length integrals           ...  NO
Higher moments velocity integrals         ...  NO
Kinetic energy integrals                  ...  NO
GIAO right hand sides                     ...  NO
GIAO dipole derivative integrals          ...  NO
SOC integrals                             ...  NO
EPR diamagnetic integrals (GIAO)          ...  NO
EPR gauge integrals                       ...  NO
Field gradient integrals                  ...  NO (   0 nuclei)
Spin-dipole/Fermi contact integrals       ...  NO (   0 nuclei)
Contact density integrals                 ...  NO (   0 nuclei)
Nucleus-orbit integrals                   ...  NO (   0 nuclei)
Geometric perturbations                   ...  NO (  15 nuclei)

Choice of electric origin   ... Center of mass
Position of electric origin ... (  0.0003,  0.0097, -0.0142) 
Choice of magnetic origin   ... GIAO
Position of magnetic origin ... (  0.0000,  0.0000,  0.0000) 

Calculating integrals                     ... Electric Dipole (Length)     done ( -5.4 sec)

Property integrals calculated in  -5.4 sec

Maximum memory used throughout the entire PROPINT-calculation: 54.1 MB

-------------------------   --------------------
FINAL SINGLE POINT ENERGY      -928.332903519185
-------------------------   --------------------

------------------------------------------------------------------------------
                         ORCA SCF GRADIENT CALCULATION
------------------------------------------------------------------------------

Nuc. rep. gradient        (SHARK) ... done (  0.0 sec)
HCore & Overlap gradient  (SHARK) ... done (  0.9 sec)
Split-RIJ-J gradient      (SHARK) ... done (  7.0 sec)
COSX-gradient                     ... done (127.1 sec)
XC gradient                       ... done ( 12.4 sec)

------------------
CARTESIAN GRADIENT
------------------

   1   F   :   -0.004759112   -0.000357082    0.002788557
   2   F   :   -0.002107162    0.003438632   -0.004490247
   3   F   :    0.003783190    0.001785201   -0.001323219
   4   F   :    0.003473358    0.004328793   -0.001599541
   5   F   :    0.002062545    0.000046812    0.006646865
   6   F   :   -0.008422642   -0.002829897   -0.001008265
   7   F   :    0.002227776    0.007101988   -0.003448857
   8   O   :   -0.033323290    0.008256222    0.002362819
   9   C   :    0.046130365   -0.002542814    0.005772995
  10   C   :   -0.005928329    0.013995115    0.008020828
  11   C   :   -0.017010944   -0.020061084   -0.006795400
  12   C   :    0.003779804   -0.011135352   -0.006988706
  13   H   :    0.004236212   -0.003122218    0.001090433
  14   H   :    0.003922182   -0.001128737   -0.002805837
  15   H   :    0.001936047    0.002224420    0.001777576

Difference to translation invariance:
           :   -0.0000000000   -0.0000000000   -0.0000000000

Difference to rotation invariance:
           :   -0.0002407324    0.0001539123    0.0003216564

Norm of the Cartesian gradient     ...    0.0703776693
RMS gradient                       ...    0.0104912835
MAX gradient                       ...    0.0461303653

-------
TIMINGS
-------

Total SCF gradient time     ....      147.356 sec

Densities                   ....       0.008 sec  (  0.0%)
One electron gradient       ....       0.911 sec  (  0.6%)
RI-J Coulomb gradient       ....       6.955 sec  (  4.7%)
COSX gradient               ....     127.079 sec  ( 86.2%)
XC gradient                 ....      12.401 sec  (  8.4%)

Maximum memory used throughout the entire SCFGRAD-calculation: 88.6 MB
------------------------------------------------------------------------------
                         ORCA GEOMETRY RELAXATION STEP
------------------------------------------------------------------------------

Reading the OPT-File                    .... done
Getting information on internals        .... done
Copying old internal coords+grads       .... done
Making the new internal coordinates     .... (2022 redundants) done
Validating the new internal coordinates .... (2022 redundants) done
Calculating the B-matrix                .... done
Calculating the G,G- and P matrices     .... done
Transforming gradient to internals      .... done
Projecting the internal gradient        .... done
Number of atoms                         ....  15
Number of internal coordinates          ....  57
Current Energy                          ....  -928.332903519 Eh
Current gradient norm                   ....     0.070377669 Eh/bohr
Maximum allowed component of the step   ....  0.300
Current trust radius                    ....  0.300
Evaluating the initial hessian          ....  (Almloef) done
Projecting the Hessian                  .... done
Forming the augmented Hessian           .... done
Diagonalizing the augmented Hessian     .... done
Last element of RFO vector              ....  0.992181174
Lowest eigenvalues of augmented Hessian:
 -0.005771226  0.013129897  0.013287640  0.019618296  0.019753006
Length of the computed step             ....  0.125789446
The final length of the internal step   ....  0.125789446
Converting the step to Cartesian space:
 Initial RMS(Int)=    0.0166612192
Transforming coordinates:
 Iter   0:  RMS(Cart)=    0.0545788133 RMS(Int)=    0.8315680522
done
Storing new coordinates                 .... done

                                .--------------------.
          ----------------------|Geometry convergence|-------------------------
          Item                value                   Tolerance       Converged
          ---------------------------------------------------------------------
          RMS gradient        0.0065949086            0.0001000000      NO
          MAX gradient        0.0334059233            0.0003000000      NO
          RMS step            0.0166612192            0.0020000000      NO
          MAX step            0.0662914780            0.0040000000      NO
          -------------------------------------------------------------------------
          ........................................................
          Max(Bonds)      0.0351      Max(Angles)    1.73
          Max(Dihed)        1.64      Max(Improp)    0.00
          ---------------------------------------------------------------------

The optimization has not yet converged - more geometry cycles are needed


    ---------------------------------------------------------------------------
                         Redundant Internal Coordinates
                            (Angstroem and degrees)

        Definition                    Value    dE/dq     Step     New-Value
    ----------------------------------------------------------------------------
     1. B(C   8,F   1)                1.3540  0.003693 -0.0033    1.3507   
     2. B(C   8,O   7)                1.4217  0.033406 -0.0351    1.3866   
     3. B(C   8,F   0)                1.3549  0.001368 -0.0012    1.3537   
     4. B(C   9,O   7)                1.4207 -0.003581  0.0037    1.4245   
     5. B(C  10,F   3)                1.3556  0.001632 -0.0014    1.3541   
     6. B(C  10,C   8)                1.5052 -0.015376  0.0196    1.5248   
     7. B(C  10,F   2)                1.3560  0.002100 -0.0019    1.3541   
     8. B(C  11,F   6)                1.3498  0.007810 -0.0068    1.3430   
     9. B(C  11,F   5)                1.3498  0.008417 -0.0073    1.3425   
    10. B(C  11,C   9)                1.5067 -0.003789  0.0049    1.5115   
    11. B(C  11,F   4)                1.3510  0.006317 -0.0055    1.3455   
    12. B(H  12,C   9)                1.0953  0.003309 -0.0049    1.0904   
    13. B(H  13,C   9)                1.0952  0.003289 -0.0048    1.0904   
    14. B(H  14,C  10)                1.0933  0.001960 -0.0029    1.0904   
    15. A(C   8,O   7,C   9)          112.56 -0.011465    1.63    114.19   
    16. A(F   1,C   8,C  10)          110.06 -0.003088    0.41    110.47   
    17. A(F   1,C   8,O   7)          109.61 -0.006840    1.32    110.92   
    18. A(O   7,C   8,C  10)          110.34  0.012490   -1.73    108.62   
    19. A(F   0,C   8,C  10)          109.68  0.001248   -0.52    109.16   
    20. A(F   0,C   8,F   1)          107.97  0.003796   -0.66    107.31   
    21. A(F   0,C   8,O   7)          109.14 -0.007885    1.22    110.36   
    22. A(H  12,C   9,H  13)          108.85 -0.000909    0.52    109.38   
    23. A(C  11,C   9,H  13)          109.52  0.001219   -0.50    109.02   
    24. A(O   7,C   9,H  13)          109.94 -0.004640    0.89    110.83   
    25. A(C  11,C   9,H  12)          109.60  0.001912   -0.63    108.97   
    26. A(O   7,C   9,H  12)          109.84 -0.005261    1.02    110.86   
    27. A(O   7,C   9,C  11)          109.08  0.007670   -1.31    107.77   
    28. A(F   3,C  10,H  14)          109.11 -0.002290    0.16    109.27   
    29. A(F   2,C  10,H  14)          108.81 -0.003249    0.32    109.13   
    30. A(F   2,C  10,F   3)          106.81 -0.006513    1.34    108.15   
    31. A(F   3,C  10,C   8)          109.51  0.006345   -0.78    108.74   
    32. A(C   8,C  10,H  14)          112.73  0.002852   -0.72    112.01   
    33. A(F   2,C  10,C   8)          109.69  0.002252   -0.19    109.49   
    34. A(F   4,C  11,C   9)          110.61 -0.007563    1.05    111.66   
    35. A(F   5,C  11,F   6)          108.10  0.003171   -0.38    107.71   
    36. A(F   4,C  11,F   6)          107.71 -0.000177    0.07    107.78   
    37. A(F   4,C  11,F   5)          107.74 -0.000206   -0.07    107.67   
    38. A(F   6,C  11,C   9)          111.26 -0.004186    0.64    111.91   
    39. A(F   5,C  11,C   9)          111.27  0.009023   -1.31    109.95   
[...]
freq.     248.12  E(vib)   ...       0.35 
freq.     309.90  E(vib)   ...       0.29 
freq.     353.33  E(vib)   ...       0.26 
freq.     389.79  E(vib)   ...       0.23 
freq.     434.28  E(vib)   ...       0.21 
freq.     519.06  E(vib)   ...       0.16 
freq.     532.53  E(vib)   ...       0.15 
freq.     543.97  E(vib)   ...       0.15 
freq.     583.21  E(vib)   ...       0.13 
freq.     590.52  E(vib)   ...       0.13 
freq.     649.02  E(vib)   ...       0.11 
freq.     774.34  E(vib)   ...       0.07 
freq.     842.78  E(vib)   ...       0.06 
freq.     874.38  E(vib)   ...       0.05 
freq.     971.23  E(vib)   ...       0.04 
freq.    1043.00  E(vib)   ...       0.03 
freq.    1092.16  E(vib)   ...       0.02 
freq.    1124.75  E(vib)   ...       0.02 
freq.    1138.22  E(vib)   ...       0.02 
freq.    1161.36  E(vib)   ...       0.02 
freq.    1175.77  E(vib)   ...       0.02 
freq.    1198.98  E(vib)   ...       0.02 
freq.    1284.27  E(vib)   ...       0.01 
freq.    1290.83  E(vib)   ...       0.01 
freq.    1305.64  E(vib)   ...       0.01 
freq.    1365.35  E(vib)   ...       0.01 
freq.    1417.21  E(vib)   ...       0.01 
freq.    1449.48  E(vib)   ...       0.01 
freq.    1501.22  E(vib)   ...       0.01 
freq.    3071.57  E(vib)   ...       0.00 
freq.    3098.21  E(vib)   ...       0.00 
freq.    3130.43  E(vib)   ...       0.00 

------------
INNER ENERGY
------------

The inner energy is: U= E(el) + E(ZPE) + E(vib) + E(rot) + E(trans)
    E(el)   - is the total energy from the electronic structure calculation
              = E(kin-el) + E(nuc-el) + E(el-el) + E(nuc-nuc)
    E(ZPE)  - the the zero temperature vibrational energy from the frequency calculation
    E(vib)  - the the finite temperature correction to E(ZPE) due to population
              of excited vibrational states
    E(rot)  - is the rotational thermal energy
    E(trans)- is the translational thermal energy

Summary of contributions to the inner energy U:
Electronic energy                ...   -928.33827442 Eh
Zero point energy                ...      0.08254172 Eh      51.80 kcal/mol
Thermal vibrational correction   ...      0.00965182 Eh       6.06 kcal/mol
Thermal rotational correction    ...      0.00152006 Eh       0.95 kcal/mol
Thermal translational correction ...      0.00152006 Eh       0.95 kcal/mol
-----------------------------------------------------------------------
Total thermal energy                   -928.24304076 Eh


Summary of corrections to the electronic energy:
(perhaps to be used in another calculation)
Total thermal correction                  0.01269195 Eh       7.96 kcal/mol
Non-thermal (ZPE) correction              0.08254172 Eh      51.80 kcal/mol
-----------------------------------------------------------------------
Total correction                          0.09523366 Eh      59.76 kcal/mol


--------
ENTHALPY
--------

The enthalpy is H = U + kB*T
                kB is Boltzmann's constant
Total thermal energy              ...   -928.24304076 Eh 
Thermal Enthalpy correction       ...      0.00101341 Eh       0.64 kcal/mol
-----------------------------------------------------------------------
Total Enthalpy                    ...   -928.24202735 Eh


Note: Only C1 symmetry has been detected, increase convergence thresholds 
      if your molecule has a higher symmetry. Symmetry factor of 1.0 is   
      used for the rotational entropy correction. 
 

Note: Rotational entropy computed according to Herzberg 
Infrared and Raman Spectra, Chapter V,1, Van Nostrand Reinhold, 1945 
Point Group:  C1, Symmetry Number:   1  
Rotational constants in cm-1:     0.063045     0.014948     0.014088 

Vibrational entropy computed according to the QRRHO of S. Grimme
Chem.Eur.J. 2012 18 9955 using a reference frequency of 100.0 cm-1


-------
ENTROPY
-------

The entropy contributions are T*S = T*(S(el)+S(vib)+S(rot)+S(trans))
     S(el)   - electronic entropy
     S(vib)  - vibrational entropy
     S(rot)  - rotational entropy
     S(trans)- translational entropy
The entropies will be listed as multiplied by the temperature to get
units of energy

Electronic entropy                ...      0.00000000 Eh      0.00 kcal/mol
Vibrational entropy               ...      0.01762087 Eh     11.06 kcal/mol
Rotational entropy                ...      0.01600517 Eh     10.04 kcal/mol
Translational entropy             ...      0.02148743 Eh     13.48 kcal/mol
-----------------------------------------------------------------------
Final entropy term                ...      0.05511347 Eh     34.58 kcal/mol

In case the symmetry of your molecule has not been determined correctly
or in case you have a reason to use a different symmetry number we print 
out the resulting rotational entropy values for sn=1,12:

 non-linear molecules -----------------------------------
|  sn= 1 | S(rot)=       0.01600517 Eh     10.04 kcal/mol|
|  sn= 2 | S(rot)=       0.01530276 Eh      9.60 kcal/mol|
|  sn= 3 | S(rot)=       0.01489187 Eh      9.34 kcal/mol|
|  sn= 4 | S(rot)=       0.01460034 Eh      9.16 kcal/mol|
|  sn= 5 | S(rot)=       0.01437421 Eh      9.02 kcal/mol|
|  sn= 6 | S(rot)=       0.01418945 Eh      8.90 kcal/mol|
|  sn= 7 | S(rot)=       0.01403324 Eh      8.81 kcal/mol|
|  sn= 8 | S(rot)=       0.01389792 Eh      8.72 kcal/mol|
|  sn= 9 | S(rot)=       0.01377856 Eh      8.65 kcal/mol|
|  sn=10 | S(rot)=       0.01367179 Eh      8.58 kcal/mol|
|  sn=11 | S(rot)=       0.01357521 Eh      8.52 kcal/mol|
|  sn=12 | S(rot)=       0.01348703 Eh      8.46 kcal/mol|
 linear molecules ---------------------------------------
|  Dinfh | S(rot)=       0.01010722 Eh      6.34 kcal/mol|
|  Cinfv | S(rot)=       0.01080964 Eh      6.78 kcal/mol|
 --------------------------------------------------------


-------------------
GIBBS FREE ENERGY
-------------------

The Gibbs free energy is G = H - T*S

Total enthalpy                    ...   -928.24202735 Eh 
Total entropy correction          ...     -0.05511347 Eh    -34.58 kcal/mol
-----------------------------------------------------------------------
Final Gibbs free energy         ...   -928.29714082 Eh

For completeness - the Gibbs free energy minus the electronic energy
G-E(el)                           ...      0.04113359 Eh     25.81 kcal/mol


The first frequency considered to be a vibration is 6
The total number of vibrations considered is 39


--------------------------
THERMOCHEMISTRY AT 340.00K
--------------------------

Temperature         ...   340.00 K
Pressure            ...     1.00 atm
Total Mass          ...   200.05 AMU
Quasi RRHO          ...     True
Cut-Off Frequency   ...     1.00 cm^-1

Throughout the following assumptions are being made:
  (1) The electronic state is orbitally nondegenerate
  (2) There are no thermally accessible electronically excited states
  (3) Hindered rotations indicated by low frequency modes are not
      treated as such but are treated as vibrations and this may
      cause some error
  (4) All equations used are the standard statistical mechanics
      equations for an ideal gas
  (5) All vibrations are strictly harmonic

freq.      15.68  E(vib)   ...       0.65 
freq.      42.77  E(vib)   ...       0.62 
freq.      71.10  E(vib)   ...       0.58 
freq.      86.29  E(vib)   ...       0.56 
freq.     132.75  E(vib)   ...       0.50 
freq.     193.60  E(vib)   ...       0.44 
freq.     224.51  E(vib)   ...       0.40 
freq.     248.12  E(vib)   ...       0.38 
freq.     309.90  E(vib)   ...       0.33 
freq.     353.33  E(vib)   ...       0.29 
freq.     389.79  E(vib)   ...       0.27 
freq.     434.28  E(vib)   ...       0.24 
freq.     519.06  E(vib)   ...       0.19 
freq.     532.53  E(vib)   ...       0.18 
freq.     543.97  E(vib)   ...       0.17 
freq.     583.21  E(vib)   ...       0.15 
freq.     590.52  E(vib)   ...       0.15 
freq.     649.02  E(vib)   ...       0.13 
freq.     774.34  E(vib)   ...       0.09 
freq.     842.78  E(vib)   ...       0.07 
freq.     874.38  E(vib)   ...       0.06 
freq.     971.23  E(vib)   ...       0.05 
freq.    1043.00  E(vib)   ...       0.04 
freq.    1092.16  E(vib)   ...       0.03 
freq.    1124.75  E(vib)   ...       0.03 
freq.    1138.22  E(vib)   ...       0.03 
freq.    1161.36  E(vib)   ...       0.02 
freq.    1175.77  E(vib)   ...       0.02 
freq.    1198.98  E(vib)   ...       0.02 
freq.    1284.27  E(vib)   ...       0.02 
freq.    1290.83  E(vib)   ...       0.02 
freq.    1305.64  E(vib)   ...       0.01 
freq.    1365.35  E(vib)   ...       0.01 
freq.    1417.21  E(vib)   ...       0.01 
freq.    1449.48  E(vib)   ...       0.01 
freq.    1501.22  E(vib)   ...       0.01 
freq.    3071.57  E(vib)   ...       0.00 
freq.    3098.21  E(vib)   ...       0.00 
freq.    3130.43  E(vib)   ...       0.00 

------------
INNER ENERGY
------------

The inner energy is: U= E(el) + E(ZPE) + E(vib) + E(rot) + E(trans)
    E(el)   - is the total energy from the electronic structure calculation
              = E(kin-el) + E(nuc-el) + E(el-el) + E(nuc-nuc)
    E(ZPE)  - the the zero temperature vibrational energy from the frequency calculation
    E(vib)  - the the finite temperature correction to E(ZPE) due to population
              of excited vibrational states
    E(rot)  - is the rotational thermal energy
    E(trans)- is the translational thermal energy

Summary of contributions to the inner energy U:
Electronic energy                ...   -928.33827442 Eh
Zero point energy                ...      0.08254172 Eh      51.80 kcal/mol
Thermal vibrational correction   ...      0.01078557 Eh       6.77 kcal/mol
Thermal rotational correction    ...      0.00161507 Eh       1.01 kcal/mol
Thermal translational correction ...      0.00161507 Eh       1.01 kcal/mol
-----------------------------------------------------------------------
Total thermal energy                   -928.24171700 Eh


Summary of corrections to the electronic energy:
(perhaps to be used in another calculation)
Total thermal correction                  0.01401571 Eh       8.79 kcal/mol
Non-thermal (ZPE) correction              0.08254172 Eh      51.80 kcal/mol
-----------------------------------------------------------------------
Total correction                          0.09655742 Eh      60.59 kcal/mol


--------
ENTHALPY
--------

The enthalpy is H = U + kB*T
                kB is Boltzmann's constant
Total thermal energy              ...   -928.24171700 Eh 
Thermal Enthalpy correction       ...      0.00107674 Eh       0.68 kcal/mol
-----------------------------------------------------------------------
Total Enthalpy                    ...   -928.24064025 Eh


Note: Only C1 symmetry has been detected, increase convergence thresholds 
      if your molecule has a higher symmetry. Symmetry factor of 1.0 is   
      used for the rotational entropy correction. 
 

Note: Rotational entropy computed according to Herzberg 
Infrared and Raman Spectra, Chapter V,1, Van Nostrand Reinhold, 1945 
Point Group:  C1, Symmetry Number:   1  
Rotational constants in cm-1:     0.063045     0.014948     0.014088 

Vibrational entropy computed according to the QRRHO of S. Grimme
Chem.Eur.J. 2012 18 9955 using a reference frequency of 100.0 cm-1


-------
ENTROPY
-------

The entropy contributions are T*S = T*(S(el)+S(vib)+S(rot)+S(trans))
     S(el)   - electronic entropy
     S(vib)  - vibrational entropy
     S(rot)  - rotational entropy
     S(trans)- translational entropy
The entropies will be listed as multiplied by the temperature to get
units of energy

Electronic entropy                ...      0.00000000 Eh      0.00 kcal/mol
Vibrational entropy               ...      0.01976854 Eh     12.40 kcal/mol
Rotational entropy                ...      0.01710341 Eh     10.73 kcal/mol
Translational entropy             ...      0.02299358 Eh     14.43 kcal/mol
-----------------------------------------------------------------------
Final entropy term                ...      0.05986553 Eh     37.57 kcal/mol

In case the symmetry of your molecule has not been determined correctly
or in case you have a reason to use a different symmetry number we print 
out the resulting rotational entropy values for sn=1,12:

 non-linear molecules -----------------------------------
|  sn= 1 | S(rot)=       0.01710341 Eh     10.73 kcal/mol|
|  sn= 2 | S(rot)=       0.01635709 Eh     10.26 kcal/mol|
|  sn= 3 | S(rot)=       0.01592052 Eh      9.99 kcal/mol|
|  sn= 4 | S(rot)=       0.01561077 Eh      9.80 kcal/mol|
|  sn= 5 | S(rot)=       0.01537051 Eh      9.65 kcal/mol|
|  sn= 6 | S(rot)=       0.01517420 Eh      9.52 kcal/mol|
|  sn= 7 | S(rot)=       0.01500823 Eh      9.42 kcal/mol|
|  sn= 8 | S(rot)=       0.01486445 Eh      9.33 kcal/mol|
|  sn= 9 | S(rot)=       0.01473763 Eh      9.25 kcal/mol|
|  sn=10 | S(rot)=       0.01462419 Eh      9.18 kcal/mol|
|  sn=11 | S(rot)=       0.01452157 Eh      9.11 kcal/mol|
|  sn=12 | S(rot)=       0.01442788 Eh      9.05 kcal/mol|
 linear molecules ---------------------------------------
|  Dinfh | S(rot)=       0.01080419 Eh      6.78 kcal/mol|
|  Cinfv | S(rot)=       0.01155051 Eh      7.25 kcal/mol|
 --------------------------------------------------------


-------------------
GIBBS FREE ENERGY
-------------------

The Gibbs free energy is G = H - T*S

Total enthalpy                    ...   -928.24064025 Eh 
Total entropy correction          ...     -0.05986553 Eh    -37.57 kcal/mol
-----------------------------------------------------------------------
Final Gibbs free energy         ...   -928.30050579 Eh

For completeness - the Gibbs free energy minus the electronic energy
G-E(el)                           ...      0.03776863 Eh     23.70 kcal/mol


Maximum memory used throughout the entire PROP-calculation: 173.9 MB

--------------------------------
SUGGESTED CITATIONS FOR THIS RUN
--------------------------------

Below you find a list of papers that are relevant to this ORCA run
We neither can nor want to force you to cite these papers, but we appreciate if you do
You receive ORCA, which is the product of decades of hard work by many enthusiastic individuals, for free
The only thing we kindly ask in return is that you cite our papers,
We deeply appreciate it, if you show your appreciation for ORCA by not just citing the generic ORCA reference.

Please note that relegating all ORCA citations to the supporting information does *not* help us.
SI sections are not indexed - citations you put there will not count into any citation statistics
But we need these citations in order to attract the funding resources that allow us to do what we are doing

Therefore, if you are a happy ORCA user, please consider citing a few of the papers listed below in the main body of your paper

In addition to the list printed below, the program has created the file HFE_347pcf2_anti.bibtex that contains the list in bibtex format
You can import this file easily into all common literature databanks and citation aid programs

It goes without saying that in many instances, there are alternative algorithms to achieve similar
results as the ones you have gotten from ORCA. It is, of course, also the case that in some instances
ORCA just re-implements algorithms worked out by others. We are fully aware of that and we are also
fully appreciative of our colleagues work. Hence this citation list should not be read as indicating
that the listed papers, which are focused on our own work, are the only ones worth citing. It simply
meant to make it easier for users to cite ORCA specific papers. It is not a substitute for doing your
own literature research and citing the relevant literature in a scientifically appropriate manner.

List of essential papers. We consider these as the minimum necessary citations

  1. Neese, F.
     Software update: the ORCA program system, version 6.0
     WIRES Comput. Molec. Sci. 2025 15(1), e70019
     doi.org/10.1002/wcms.70019

List of papers to cite with high priority. The work reported in these papers was absolutely
necessary for this run to complete.
Our perspective: the developers of density functionals and basis sets usually get cited in chemistry papers
Good! But without the algorithms to do something with them, the functionals or basis sets would not do anything.
Hence, in our opinion, the algorithm design and method developments papers are equally worthy of getting cited

  1. Neese, F.
     An improvement of the resolution of the identity approximation for the formation of the Coulomb matrix
     J. Comp. Chem. 2003 24(14), 1740-1747
     doi.org/10.1002/jcc.10318
  2. Neese, F.; Wennmohs, F.; Hansen, A.; Becker, U.
     Efficient, approximate and parallel Hartree-Fock and hybrid DFT calculations. A 'chain-of-spheres' algorithm for the Hartree-Fock exchange
     Chem. Phys. 2009 356(1-3), 98-109
     doi.org/10.1016/j.chemphys.2008.10.036
  3. Bykov, D.; Petrenko, T.; Izsak, R.; Kossmann, S.; Becker, U.; Valeev, E.; Neese, F.
     Efficient implementation of the analytic second derivatives of Hartree-Fock and hybrid DFT energies: a detailed analysis of different approximations
     Molec. Phys. 2015 113 , 1961-1977
     doi.org/10.1080/00268976.2015.1025114
  4. Helmich-Paris, B.; de Souza, B.; Neese, F.; Izsák, R.
     An improved chain of spheres for exchange algorithm
     J. Chem. Phys. 2021 155(10), 104109
     doi.org/10.1063/5.0058766
  5. Neese, F.
     The SHARK Integral Generation and Digestion System
     J. Comp. Chem. 2022 44(3), 381
     doi.org/10.1002/jcc.26942

List of suggested additional citations. These are papers that are important in the 'surrounding' of 
of this run, or papers that preceded the highly important papers. If you like your results we are grateful for a citation.

  1. Izsak, R.; Neese, F.
     An overlap fitted chain of spheres exchange method
     J. Chem. Phys. 2011 135 , 144105
     doi.org/10.1063/1.3646921
  2. Izsak, R.; Hansen, A.; Neese, F.
     The resolution of identity and chain of spheres approximations for the LPNO-CCSD singles Fock term
     Molec. Phys. 2012 110 , 2413-2417
     doi.org/10.1080/00268976.2012.687466
  3. Neese, F.
     The ORCA program system
     WIRES Comput. Molec. Sci. 2012 2(1), 73-78
     doi.org/10.1002/wcms.81
  4. Izsak, R.; Neese, F.; Klopper, W.
     Robust fitting techniques in the chain of spheres approximation to the Fock exchange: The role of the complementary space
     J. Chem. Phys. 2013 139 , 
     doi.org/10.1063/1.4819264
  5. Neese, F.
     Software update: the ORCA program system, version 4.0
     WIRES Comput. Molec. Sci. 2018 8(1), 1-6
     doi.org/10.1002/wcms.1327
  6. Neese, F.; Wennmohs, F.; Becker, U.; Riplinger, C.
     The ORCA quantum chemistry program package
     J. Chem. Phys. 2020 152(22), 224108
     doi.org/10.1063/5.0004608
  7. Neese, F.
     Software update: The ORCA program system—Version 5.0
     WIRES Comput. Molec. Sci. 2022 12(1), e1606
     doi.org/10.1002/wcms.1606

List of optional additional citations

  1. Neese, F.
     Approximate second-order SCF convergence for spin unrestricted wavefunctions
     Chem. Phys. Lett. 2000 325(1-3), 93-98
     doi.org/10.1016/s0009-2614(00)00662-x

Timings for individual modules:

Sum of individual times          ...     9463.234 sec (= 157.721 min)
Startup calculation              ...       51.169 sec (=   0.853 min)   0.5 %
SCF iterations                   ...     5753.828 sec (=  95.897 min)  60.8 %
Property integrals               ...      489.427 sec (=   8.157 min)   5.2 %
SCF Response                     ...      323.493 sec (=   5.392 min)   3.4 %
Property calculations            ...      975.832 sec (=  16.264 min)  10.3 %
SCF Gradient evaluation          ...     1869.188 sec (=  31.153 min)  19.8 %
Geometry relaxation              ...        0.296 sec (=   0.005 min)   0.0 %
                             ****ORCA TERMINATED NORMALLY****
TOTAL RUN TIME: 0 days 2 hours 37 minutes 52 seconds 578 msec
