
                                 *****************
                                 * O   R   C   A *
                                 *****************

                                            #,                                       
                                            ###                                      
                                            ####                                     
                                            #####                                    
                                            ######                                   
                                           ########,                                 
                                     ,,################,,,,,                         
                               ,,#################################,,                 
                          ,,##########################################,,             
                       ,#########################################, ''#####,          
                    ,#############################################,,   '####,        
                  ,##################################################,,,,####,       
                ,###########''''           ''''###############################       
              ,#####''   ,,,,##########,,,,          '''####'''          '####       
            ,##' ,,,,###########################,,,                        '##       
           ' ,,###''''                  '''############,,,                           
         ,,##''                                '''############,,,,        ,,,,,,###''
      ,#''                                            '''#######################'''  
     '                                                          ''''####''''         
             ,#######,   #######,   ,#######,      ##                                
            ,#'     '#,  ##    ##  ,#'     '#,    #''#        ,####,    ,#,          
            ##       ##  ##   ,#'  ##            #'  '#       #'       ,# #          
            ##       ##  #######   ##           ,######,      #####,      #          
            '#,     ,#'  ##    ##  '#,     ,#' ,#      #,     #,   #      #          
             '#######'   ##     ##  '#######'  #'      '#     '####' #    #          



                #########################################################
                #                        -***-                          #
                #          Department of theory and spectroscopy        #
                #                                                       #
                #                      Frank Neese                      #
                #                                                       #
                #     Directorship, Architecture, Infrastructure        #
                #                    SHARK, DRIVERS                     #
                #        Core code/Algorithms in most modules           #
                #                                                       #
                #        Max Planck Institute fuer Kohlenforschung      #
                #                Kaiser Wilhelm Platz 1                 #
                #                 D-45470 Muelheim/Ruhr                 #
                #                      Germany                          #
                #                                                       #
                #                  All rights reserved                  #
                #                        -***-                          #
                #########################################################


                         Program Version 6.1.1  -  RELEASE   -
                                (GIT: $487d211c$)
                          ($2025-11-21 10:33:24 +0100$)


 With contributions from (in alphabetic order):
[Max-Planck-Institut fuer Kohlenforschung]                               
  Daniel Aravena         : Magnetic Suceptibility                        
  Michael Atanasov       : Ab Initio Ligand Field Theory (pilot matlab implementation)
  Alexander A. Auer      : GIAO ZORA, VPT2 properties, NMR spectrum      
  Ute Becker             : All parallelization in ORCA, NUMFREQ, NUMCALC 
  Giovanni Bistoni       : ED, misc. LED, open-shell LED, HFLD           
  Dmytro Bykov           : pre 5.0 version of the SCF Hessian            
  Marcos Casanova-Páez   : Triplet and SCS-CIS(D). UHF-(DLPNO)-IP/EA/STEOM-CCSD. UHF-CVS-IP/STEOM-CCSD   
  Vijay G. Chilkuri      : MRCI spin determinant printing, contributions to CSF-ICE 
  Pauline Colinet        : FMM embedding                                 
  Dipayan Datta          : RHF DLPNO-CCSD density                        
  Achintya Kumar Dutta   : EOM-CC, STEOM-CC                              
  Nicolas Foglia         : Exact transition moments, OPA infrastructure, MCD improvements    
  Dmitry Ganyushin       : Spin-Orbit,Spin-Spin,Magnetic field MRCI      
  Miquel Garcia-Rates    : C-PCM and meta-GGA Hessian, CCSD/C-PCM, Gaussian charge scheme 
  Tiago L. C. Gouveia    : GS-ROHF, GS-ROCIS                             
  Yang Guo               : DLPNO-NEVPT2, F12-NEVPT2, CIM, IAO-localization        
  Andreas Hansen         : Spin unrestricted coupled pair/coupled cluster methods 
  Ingolf Harden          : AUTO-CI MPn and infrastructure                
  Benjamin Helmich-Paris : MC-RPA, TRAH-(SCF,CASSCF), AVAS, COSX integrals, SCF dyn. polar., MC-PDFT, srDFT 
  Lee Huntington         : MR-EOM, pCC                                   
  Robert Izsak           : Overlap fitted RIJCOSX, COSX-SCS-MP3, EOM     
  Riya Kayal             : Wick's Theorem for AUTO-CI, AUTO-CI UHF-CCSDT 
  Emily Kempfer          : AUTO-CI RHF CISDT and CCSDT, approximate NEVPT4
  Christian Kollmar      : KDIIS, OOCD, Brueckner-CCSD(T), CCSD density, CASPT2, CASPT2-K, improved NEVPT2 
  Axel Koslowski         : Symmetry handling                             
  Simone Kossmann        : meta-GGA functionals, TD-DFT gradient, OOMP2, (MP2 Hessian; deprecated post 5.0) 
  Lucas Lang             : DCDCAS, Hyperfine gauge corrections, ICE-SOC+SSC
  Marvin Lechner         : AUTO-CI (C++ implementation), FIC-MRCC        
  Spencer Leger          : CASSCF response                               
  Dagmar Lenk            : GEPOL surface, SMD, ORCA-2-JSON               
  Dimitrios Liakos       : Extrapolation schemes; Compound Job, Property file
  Dimitrios Manganas     : Further ROCIS development; embedding schemes. LFT, Crystal Embedding 
  Dimitrios Pantazis     : SARC Basis sets                               
  Anastasios Papadopoulos: AUTO-CI, single reference methods and gradients 
  Taras Petrenko         : pre 6.0 DFT Hessian and TD-DFT gradient,  ECA, NRVS 
  Petra Pikulova         : Analytic Raman intensities                    
  Peter Pinski           : DLPNO-MP2, DLPNO-MP2 Gradient                 
  Shashank Vittal Rao    : ES-AILFT, MagRelax                            
  Christoph Reimann      : Effective Core Potentials                     
  Marius Retegan         : Local ZFS, SOC                                
  Christoph Riplinger    : Optimizer, TS searches, QM/MM, DLPNO-CCSD(T), (RO)-DLPNO pert. Triples 
  Michael Roemelt        : Original ROCIS implementation, recursive CI coupling coefficients
  Masaaki Saitow         : Open-shell DLPNO-CCSD energy and density      
  Barbara Sandhoefer     : DKH picture change effects                    
  Yorick L. A. Schmerwitz: GMF and freeze-and-release deltaSCF, NEB S-IDPP initial path                    
  Kantharuban Sivalingam : CASSCF convergence/infrastructure, NEVPT2, NEVPT3, NEVPT4(SD), FIC-MRCI and CEPA variants
  Bernardo de Souza      : ESD, SOC TD-DFT                               
  Georgi L. Stoychev     : AutoAux, RI-MP2 NMR, DLPNO-MP2 response, X2C  
  Van Anh Tran           : RI-MP2 g-tensors                              
  Willem Van den Heuvel  : Paramagnetic NMR                              
  Zikuan Wang            : NOTCH, Electric field optimization            
  Frank Wennmohs         : Technical directorship and infrastructure     
  Hang Xu                : AUTO-CI-Response properties                   
                                                                         
[FACCTs GmbH]                                                            
  Markus Bursch, Nicolas Foglia, Miquel Garcia-Rates, Ingolf Harden, Hagen Neugebauer, Anastasios Papadopoulos, 
  Christoph Riplinger, Bernardo de Souza, Georgi L. Stoychev                                                    
                                                                 
  APM, various basis sets, CI-OPT, improved COSX, DLPNO-Multilevel,           
  DOCKER, DRACO, updates on ESD, Fragmentator, GOAT, IRC, LR-CPCM, L-BFGS, MBIS, meta-GGA TD-DFT gradient, ML-optimized integration grids, 
  MM, NACMEs, nearIR, NEB, NEB-TS, NL-DFT gradient (VV10), 2- and 3-layer-ONIOM, interface openCOSMO-RS, QMMM,   
  Crystal-QMMM, RESP, rigid body optimization, SF, symmetry and pop. for TD-DFT, various functionals, SOLVATOR                                   
                                                                         
[Other institutions]                                                     
  V. Asgeirsson          : NEB                                           
  Christoph Bannwarth    : sTDA-DFT, sTD-DFT, PBEh-3c, B97-3c, D3        
  Giovanni Bistoni       : ETS/NOCV, ADLD/ADEX, COVALED                  
  Martin Brehm           : Molecular dynamics                            
  Ronald Cardenas        : ETS/NOCV                                      
  Martina Colucci        : COVALED                                       
  Sebastian Ehlert       : rSCAN, r2SCAN, r2SCAN-3c, D4, dhf basis sets  
  Marvin Friede          : D4 for Fr, Ra, Ac-Lr                          
  Lars Goerigk           : TD-DFT with DH, B97 family of functionals     
  Stefan Grimme          : VdW corrections, initial TS optimization, DFT functionals, gCP, sTDA/sTD-DF 
  Waldemar Hujo          : DFT-NL                                        
  H. Jonsson             : NEB                                           
  Holger Kruse           : gCP                                           
  Marcel Mueller         : wB97X-3c, vDZP basis set                      
  Hagen Neugebauer       : wr2SCAN, Native XTB                           
  Gianluca Regni         : ADLD/ADEX                                     
  Tobias Risthaus        : pre 6.0 range-separated hybrid DFT and stability analysis
  Lukas Wittmann         : regularized MP2, r2SCAN double-hybrids, wr2SCAN        
                                                                         
We gratefully acknowledge several colleagues who have allowed us to      
interface, adapt or use parts of their codes:                            
  Ed Valeev, F. Pavosevic, A. Kumar             : LibInt (2-el integral package), F12 methods 
  Garnet Chan, S. Sharma, J. Yang, R. Olivares  : DMRG                   
  Ulf Ekstrom                                   : XCFun DFT Library      
  Mihaly Kallay                                 : mrcc  (arbitrary order and MRCC methods)
  Frank Weinhold                                : gennbo (NPA and NBO analysis)           
  Simon Mueller                                 : openCOSMO-RS                            
  Christopher J. Cramer and Donald G. Truhlar   : smd solvation model                     
  S Lehtola, MJT Oliveira, MAL Marques          : LibXC Library                           
  Liviu Ungur et al                             : ANISO software                          


 Your calculation uses the libint2 library for the computation of 2-el integrals
 For citations please refer to: http://libint.valeyev.net

 Your ORCA version has been built with support for libXC version: 7.0.0
 For citations please refer to: https://libxc.gitlab.io

 This ORCA versions uses:
   CBLAS   interface :  Fast vector & matrix operations
   LAPACKE interface :  Fast linear algebra routines
   SCALAPACK package :  Parallel linear algebra routines
   Shared memory     :  Shared parallel matrices
   BLAS/LAPACK       :  OpenBLAS 0.3.29  USE64BITINT DYNAMIC_ARCH NO_AFFINITY Cooperlake SINGLE_THREADED
        Core in use  :  Cooperlake
   Copyright (c) 2011-2014, The OpenBLAS Project


  ***********************************
  * Starting time: Tue Feb 17 16:56:50 2026
  * Host name:     Breado
  * Process ID:    9051
  * Working dir.:  /home/bread/other_data/B3LYP_6-311++G3df3pd
  ***********************************

Warning: RI is on but no J-basis has been assigned. Assigning Def2/J (nothing to worry about!)
================================================================================

----- Orbital basis set information -----
Your calculation utilizes the basis: 6-311++G(3df,3pd)
   H, Li - Ne  : R. Krishnan, J. S. Binkley, R. Seeger and J. A. Pople, J. Chem. Phys. 72, 650 (1980).
   Na - Ar     : A. D. McLean and G. S. Chandler J. Chem. Phys. 72, 5639, (1980).
   K  - Ca     : J.-P. Blaudeau, M. P. McGrath, L. A. Curtiss and L. Radom, J. Chem. Phys. 107, 5016 (1997).
   Ga - Kr     : L. A. Curtiss, M. P. McGrath, J.-P. Blandeau, N. E. Davis, R. C. Binning and L. Radom, J. Chem. Phys. 103, 6104 (1995).
   Pol./Diff.
   H, Li - Cl  : T. Clark, J. Chandrasekhar and P. v. R. Schleyer, J. Comp. Chem. 4, 294 (1983).
   H - Ne      : M. J. Frisch, J. A. Pople and J. S. Binkley, J. Chem. Phys. 80, 3265 (1984).

----- AuxJ basis set information -----
Your calculation utilizes the auxiliary basis: def2/J
   H-Rn: F. Weigend, Phys. Chem. Chem. Phys. 8, 1057 (2006).
   Fr-Lr: K. Eichkorn, F. Weigend, O. Treutler, R. Ahlrichs; Theor. Chem. Acc. 97, 119 (1997).

================================================================================
                                        WARNINGS
                       Please study these warnings very carefully!
================================================================================


WARNING: Geometry Optimization
  ===> : Switching off AutoStart
         For restart on a previous wavefunction, please use MOREAD

================================================================================
                                       INPUT FILE
================================================================================
NAME = HFE_347pcf2_gauche2.inp
|  1> # avogadro generated ORCA input file 
|  2> # Basic Mode
|  3> # 
|  4> ! B3LYP 6-311++G(3df,3pd) OPT FREQ 
|  5> % FREQ TEMP 305, 320, 340 END
|  6> 
|  7> * xyz 0 1
|  8>    F        1.57550       -1.24070        1.22680
|  9>    F        2.24660       -1.31560       -0.85780
| 10>    F        1.24280        1.48160        1.02660
| 11>    F        1.89540        1.41730       -1.04930
| 12>    F       -2.21040        0.58860       -1.24560
| 13>    F       -2.97990        0.67620        0.79360
| 14>    F       -2.55970       -1.25630       -0.13610
| 15>    O        0.13720       -0.61470       -0.40400
| 16>    C        1.49250       -0.61950        0.02550
| 17>    C       -0.71760        0.07520        0.49690
| 18>    C        2.00800        0.78950        0.14680
| 19>    C       -2.13040        0.01840       -0.02340
| 20>    H       -0.53430        1.14710        0.50530
| 21>    H       -0.65750       -0.34600        1.50500
| 22>    H        3.05020        0.82730        0.47350
| 23> *
| 24> 
| 25> 
| 26>                          ****END OF INPUT****
================================================================================

                       *****************************
                       * Geometry Optimization Run *
                       *****************************

Geometry optimization settings:
Update method            Update   .... BFGS
Choice of coordinates    CoordSys .... (2022) Redundant Internals
Initial Hessian          InHess   .... Almloef's Model
Max. no of cycles        MaxIter  .... 50

Convergence Tolerances:
Energy Change            TolE     ....  5.0000e-06 Eh
Max. Gradient            TolMAXG  ....  3.0000e-04 Eh/bohr
RMS Gradient             TolRMSG  ....  1.0000e-04 Eh/bohr
Max. Displacement        TolMAXD  ....  4.0000e-03 bohr
RMS Displacement         TolRMSD  ....  2.0000e-03 bohr
Strict Convergence                .... False

------------------------------------------------------------------------------
                        ORCA OPTIMIZATION COORDINATE SETUP
------------------------------------------------------------------------------

The optimization will be done in redundant internal coordinates (2022)
Making redundant internal coordinates   ...  (2022 redundants) done
Evaluating the initial hessian          ...  (Almloef) done
Evaluating the coordinates              ...  done
Calculating the B-matrix                .... done
Calculating the G-matrix                .... done
The number of degrees of freedom        ....   57

    -----------------------------------------------------------------
                    Redundant Internal Coordinates


    -----------------------------------------------------------------
         Definition                    Initial Value    Approx d2E/dq
    -----------------------------------------------------------------
      1. B(C   8,F   1)                  1.3540         0.593374   
      2. B(C   8,O   7)                  1.4217         0.498017   
      3. B(C   8,F   0)                  1.3550         0.591399   
      4. B(C   9,O   7)                  1.4207         0.499994   
      5. B(C  10,F   3)                  1.3555         0.590144   
      6. B(C  10,C   8)                  1.5052         0.409154   
      7. B(C  10,F   2)                  1.3559         0.589254   
      8. B(C  11,F   6)                  1.3498         0.602785   
      9. B(C  11,F   5)                  1.3498         0.602801   
     10. B(C  11,C   9)                  1.5066         0.407060   
     11. B(C  11,F   4)                  1.3510         0.599970   
     12. B(H  12,C   9)                  1.0875         0.363433   
     13. B(H  13,C   9)                  1.0942         0.354579   
     14. B(H  14,C  10)                  1.0929         0.356337   
     15. A(C   8,O   7,C   9)          112.5596         0.396641   
     16. A(F   1,C   8,C  10)          110.0634         0.395699   
     17. A(F   1,C   8,O   7)          109.6069         0.407012   
     18. A(O   7,C   8,C  10)          110.3438         0.385431   
     19. A(F   0,C   8,C  10)          109.6777         0.395467   
     20. A(F   0,C   8,F   1)          107.9723         0.417779   
     21. A(F   0,C   8,O   7)          109.1341         0.406772   
     22. A(H  12,C   9,H  13)          111.2872         0.290555   
     23. A(C  11,C   9,H  13)          110.8030         0.328098   
     24. A(O   7,C   9,H  13)          111.3620         0.337428   
     25. A(C  11,C   9,H  12)          101.4132         0.329436   
     26. A(O   7,C   9,H  12)          112.4662         0.338819   
     27. A(O   7,C   9,C  11)          109.0818         0.385352   
     28. A(F   3,C  10,H  14)          109.0854         0.345773   
     29. A(F   2,C  10,H  14)          109.0595         0.345685   
     30. A(F   2,C  10,F   3)          106.8137         0.417103   
     31. A(F   3,C  10,C   8)          109.5101         0.395320   
     32. A(C   8,C  10,H  14)          112.5235         0.328644   
     33. A(F   2,C  10,C   8)          109.6825         0.395215   
     34. A(F   4,C  11,C   9)          110.6111         0.396110   
     35. A(F   5,C  11,F   6)          108.0959         0.420381   
     36. A(F   4,C  11,F   6)          107.7105         0.420028   
     37. A(F   4,C  11,F   5)          107.7354         0.420030   
     38. A(F   6,C  11,C   9)          111.2652         0.396436   
     39. A(F   5,C  11,C   9)          111.2705         0.396438   
     40. D(F   1,C   8,O   7,C   9)    178.6391         0.019603   
     41. D(F   0,C   8,O   7,C   9)     60.5858         0.019603   
     42. D(C  10,C   8,O   7,C   9)    -59.9962         0.019603   
     43. D(H  13,C   9,O   7,C   8)    -56.7360         0.019764   
     44. D(H  12,C   9,O   7,C   8)     68.9670         0.019764   
     45. D(C  11,C   9,O   7,C   8)   -179.3401         0.019764   
     46. D(F   2,C  10,C   8,F   0)    -61.7161         0.013263   
     47. D(F   3,C  10,C   8,O   7)    -58.3750         0.013263   
     48. D(F   3,C  10,C   8,F   1)     62.7180         0.013263   
     49. D(F   3,C  10,C   8,F   0)   -178.6309         0.013263   
     50. D(F   2,C  10,C   8,O   7)     58.5397         0.013263   
     51. D(F   2,C  10,C   8,F   1)    179.6328         0.013263   
     52. D(F   4,C  11,C   9,H  13)    177.5026         0.013131   
     53. D(F   4,C  11,C   9,H  12)     59.2803         0.013131   
     54. D(F   4,C  11,C   9,O   7)    -59.5585         0.013131   
     55. D(F   5,C  11,C   9,H  13)     57.7896         0.013131   
     56. D(F   5,C  11,C   9,H  12)    -60.4327         0.013131   
     57. D(F   5,C  11,C   9,O   7)   -179.2715         0.013131   
    -----------------------------------------------------------------

Number of atoms                         .... 15
Number of degrees of freedom            .... 57


         *************************************************************
         *                GEOMETRY OPTIMIZATION CYCLE   1            *
         *************************************************************
---------------------------------
CARTESIAN COORDINATES (ANGSTROEM)
---------------------------------
  F      1.575500   -1.240700    1.226800
  F      2.246600   -1.315600   -0.857800
  F      1.242800    1.481600    1.026600
  F      1.895400    1.417300   -1.049300
  F     -2.210400    0.588600   -1.245600
  F     -2.979900    0.676200    0.793600
  F     -2.559700   -1.256300   -0.136100
  O      0.137200   -0.614700   -0.404000
  C      1.492500   -0.619500    0.025500
  C     -0.717600    0.075200    0.496900
  C      2.008000    0.789500    0.146800
  C     -2.130400    0.018400   -0.023400
  H     -0.534300    1.147100    0.505300
  H     -0.657500   -0.346000    1.505000
  H      3.050200    0.827300    0.473500

----------------------------
CARTESIAN COORDINATES (A.U.)
----------------------------
  NO LB      ZA    FRAG     MASS         X           Y           Z
   0 F     9.0000    0    18.998    2.977264   -2.344583    2.318316
   1 F     9.0000    0    18.998    4.245459   -2.486124   -1.621007
   2 F     9.0000    0    18.998    2.348552    2.799818    1.939993
   3 F     9.0000    0    18.998    3.581787    2.678309   -1.982890
   4 F     9.0000    0    18.998   -4.177051    1.112293   -2.353843
   5 F     9.0000    0    18.998   -5.631195    1.277833    1.499687
   6 F     9.0000    0    18.998   -4.837132   -2.374063   -0.257192
   7 O     8.0000    0    15.999    0.259270   -1.161615   -0.763449
   8 C     6.0000    0    12.011    2.820416   -1.170685    0.048188
   9 C     6.0000    0    12.011   -1.356067    0.142107    0.939005
  10 C     6.0000    0    12.011    3.794570    1.491939    0.277412
  11 C     6.0000    0    12.011   -4.025873    0.034771   -0.044220
  12 H     1.0000    0     1.008   -1.009681    2.167705    0.954879
  13 H     1.0000    0     1.008   -1.242495   -0.653845    2.844038
  14 H     1.0000    0     1.008    5.764043    1.563370    0.894785

--------------------------------
INTERNAL COORDINATES (ANGSTROEM)
--------------------------------
 F      0   0   0     0.000000000000     0.00000000     0.00000000
 F      1   0   0     2.191242200214     0.00000000     0.00000000
 F      1   2   0     2.749852108751    90.09355006     0.00000000
 F      3   1   2     2.177012186461    90.22425874     0.35296628
 F      4   3   1     4.193193415525    75.93372403    85.69446382
 F      5   4   3     2.181316265469   107.08054245     1.33679615
 F      5   4   3     2.180976100282   107.46846186   298.05368267
 O      1   2   3     2.262761925170    61.21614647    62.54808888
 C      2   1   3     1.354046125507    36.02780568   333.74686837
 C      8   1   2     1.420656841042    93.42681437   197.81184094
 C      4   3   1     1.355531928801    36.59961993   332.66665868
 C      6   5   4     1.349755566760    36.15212786   296.82148733
 H     10   8   1     1.087492096523   112.46622839    98.54972767
 H     10   8   1     1.094206132317   111.36200472   332.84681044
 H     11   4   3     1.092859812602   109.08543249   242.25564236

---------------------------
INTERNAL COORDINATES (A.U.)
---------------------------
 F      0   0   0     0.000000000000     0.00000000     0.00000000
 F      1   0   0     4.140847651496     0.00000000     0.00000000
 F      1   2   0     5.196467394324    90.09355006     0.00000000
 F      3   1   2     4.113956822621    90.22425874     0.35296628
 F      4   3   1     7.923987181904    75.93372403    85.69446382
 F      5   4   3     4.122090353204   107.08054245     1.33679615
 F      5   4   3     4.121447534160   107.46846186   298.05368267
 O      1   2   3     4.276000344836    61.21614647    62.54808888
 C      2   1   3     2.558776349905    36.02780568   333.74686837
 C      8   1   2     2.684652359851    93.42681437   197.81184094
 C      4   3   1     2.561584111221    36.59961993   332.66665868
 C      6   5   4     2.550668368912    36.15212786   296.82148733
 H     10   8   1     2.055062235232   112.46622839    98.54972767
 H     10   8   1     2.067749924136   111.36200472   332.84681044
 H     11   4   3     2.065205748586   109.08543249   242.25564236

---------------------
BASIS SET INFORMATION
---------------------
There are 4 groups of distinct atoms

 Group   1 Type F   : 12s6p3d1f contracted to 5s4p3d1f pattern {63111/3111/111/1}
 Group   2 Type O   : 12s6p3d1f contracted to 5s4p3d1f pattern {63111/3111/111/1}
 Group   3 Type C   : 12s6p3d1f contracted to 5s4p3d1f pattern {63111/3111/111/1}
 Group   4 Type H   : 6s3p1d contracted to 4s3p1d pattern {3111/111/1}

Atom   0F    basis set group =>   1
Atom   1F    basis set group =>   1
Atom   2F    basis set group =>   1
Atom   3F    basis set group =>   1
Atom   4F    basis set group =>   1
Atom   5F    basis set group =>   1
Atom   6F    basis set group =>   1
Atom   7O    basis set group =>   2
Atom   8C    basis set group =>   3
Atom   9C    basis set group =>   3
Atom  10C    basis set group =>   3
Atom  11C    basis set group =>   3
Atom  12H    basis set group =>   4
Atom  13H    basis set group =>   4
Atom  14H    basis set group =>   4
---------------------------------
AUXILIARY/J BASIS SET INFORMATION
---------------------------------
There are 4 groups of distinct atoms

 Group   1 Type F   : 12s5p4d2f1g contracted to 6s4p3d1f1g pattern {711111/2111/211/2/1}
 Group   2 Type O   : 12s5p4d2f1g contracted to 6s4p3d1f1g pattern {711111/2111/211/2/1}
 Group   3 Type C   : 12s5p4d2f1g contracted to 6s4p3d1f1g pattern {711111/2111/211/2/1}
 Group   4 Type H   : 5s2p1d contracted to 3s1p1d pattern {311/2/1}

Atom   0F    basis set group =>   1
Atom   1F    basis set group =>   1
Atom   2F    basis set group =>   1
Atom   3F    basis set group =>   1
Atom   4F    basis set group =>   1
Atom   5F    basis set group =>   1
Atom   6F    basis set group =>   1
Atom   7O    basis set group =>   2
Atom   8C    basis set group =>   3
Atom   9C    basis set group =>   3
Atom  10C    basis set group =>   3
Atom  11C    basis set group =>   3
Atom  12H    basis set group =>   4
Atom  13H    basis set group =>   4
Atom  14H    basis set group =>   4
------------------------------------------------------------------------------
                             ORCA STARTUP CALCULATIONS
                           -- RI-GTO INTEGRALS CHOSEN --
------------------------------------------------------------------------------
------------------------------------------------------------------------------
                   ___                                                        
                  /   \      - P O W E R E D   B Y -                         
                 /     \                                                     
                 |  |  |   _    _      __       _____    __    __             
                 |  |  |  | |  | |    /  \     |  _  \  |  |  /  |          
                  \  \/   | |  | |   /    \    | | | |  |  | /  /          
                 / \  \   | |__| |  /  /\  \   | |_| |  |  |/  /          
                |  |  |   |  __  | /  /__\  \  |    /   |      \           
                |  |  |   | |  | | |   __   |  |    \   |  |\   \          
                \     /   | |  | | |  |  |  |  | |\  \  |  | \   \       
                 \___/    |_|  |_| |__|  |__|  |_| \__\ |__|  \__/        
                                                                              
                      - O R C A' S   B I G   F R I E N D -                    
                                      &                                       
                       - I N T E G R A L  F E E D E R -                       
                                                                              
 v1 FN, 2020, v2 2021, v3 2022-2024                                           
------------------------------------------------------------------------------


----------------------
SHARK INTEGRAL PACKAGE
----------------------

Number of atoms                             ...     15
Number of basis functions                   ...    522
Number of shells                            ...    180
Maximum angular momentum                    ...      3
Integral batch strategy                     ... SHARK/LIBINT Hybrid
RI-J (if used) integral strategy            ... SPLIT-RIJ (Revised 2003 algorithm where possible)
Printlevel                                  ...      1
Contraction scheme used                     ... SEGMENTED contraction
Prescreening option                         ... SCHWARTZ
   Thresh                                   ... 2.500e-11
   Tcut                                     ... 2.500e-12
   Tpresel                                  ... 2.500e-12 
Coulomb Range Separation                    ... NOT USED
Exchange Range Separation                   ... NOT USED
Multipole approximations                    ... NOT USED
Finite Nucleus Model                        ... NOT USED
CABS basis                                  ... NOT available
Auxiliary Coulomb fitting basis             ... AVAILABLE
   # of basis functions in Aux-J            ...    621
   # of shells in Aux-J                     ...    195
   Maximum angular momentum in Aux-J        ...      4
Auxiliary J/K fitting basis                 ... NOT available
Auxiliary Correlation fitting basis         ... NOT available
Auxiliary 'external' fitting basis          ... NOT available

Checking pre-screening integrals            ... done (  0.0 sec) Dimension = 180
   => SHARK Basis and OBASIS are compatible. Storing Pre-screening
Shell pair information
Shell pair cut-off parameter TPreSel        ...   2.5e-12
Total number of shell pairs                 ...     16290
Shell pairs after pre-screening             ...     13761
Total number of primitive shell pairs       ...     43626
Primitive shell pairs kept                  ...     27443
          la=0 lb=0:   2191 shell pairs
          la=1 lb=0:   3615 shell pairs
          la=1 lb=1:   1497 shell pairs
          la=2 lb=0:   2265 shell pairs
          la=2 lb=1:   1912 shell pairs
          la=2 lb=2:    603 shell pairs
          la=3 lb=0:    684 shell pairs
          la=3 lb=1:    584 shell pairs
          la=3 lb=2:    353 shell pairs
          la=3 lb=3:     57 shell pairs

Checking whether 4 symmetric matrices of dimension 522 fit in memory
:Max Core in MB      =   4096.00
 MB in use           =     20.22
 MB left             =   4075.78
 MB needed           =      4.17
 Data fit in memory  = YES
Calculating RI/J V-Matrix + Cholesky decomp.... done (  0.0 sec)
Calculating Nuclear repulsion               ... done (  0.0 sec) ENN=    863.221943248253 Eh

Diagonalization of the overlap matrix:
Smallest eigenvalue                        ... 2.349e-05
Time for diagonalization                   ...    0.031 sec
Threshold for overlap eigenvalues          ... 1.000e-07
Number of eigenvalues below threshold      ... 0
Time for construction of square roots      ...    0.017 sec
Total time needed                          ...    0.049 sec

-------------------
DFT GRID GENERATION
-------------------

General Integration Accuracy     IntAcc      ... 4.388
Radial Grid Type                 RadialGrid  ... OptM3 with GC (2021)
Angular Grid (max. ang.)         AngularGrid ... 4 (Lebedev-302)
Angular grid pruning method      GridPruning ... 4 (adaptive)
Weight generation scheme         WeightScheme... mBecke (2022)
Basis function cutoff            BFCut       ... 1.0000e-11
Integration weight cutoff        WCut        ... 1.0000e-14
Partially contracted basis set               ... off
Rotationally invariant grid construction     ... off
Angular grids for H and He will be reduced by one unit
Diffuse basis detected: some atoms will have their outermost
                        angular grid increased by 1.

Total number of grid points                  ...    86499
Total number of batches                      ...     1358
Average number of points per batch           ...       63
Average number of grid points per atom       ...     5767

--------------------
COSX GRID GENERATION
--------------------

GRIDX 1
-------
General Integration Accuracy     IntAcc      ... 3.816
Radial Grid Type                 RadialGrid  ... OptM3 with GC (2021)
Angular Grid (max. ang.)         AngularGrid ... 1 (Lebedev-50)
Angular grid pruning method      GridPruning ... 4 (adaptive)
Weight generation scheme         WeightScheme... mBecke (2022)
Basis function cutoff            BFCut       ... 1.0000e-11
Integration weight cutoff        WCut        ... 1.0000e-14
Partially contracted basis set               ... on
Rotationally invariant grid construction     ... off
Angular grids for H and He will be reduced by one unit
Diffuse basis detected: some atoms will have their outermost
                        angular grid increased by 1.

Total number of grid points                  ...    10908
Total number of batches                      ...       94
Average number of points per batch           ...      116
Average number of grid points per atom       ...      727
UseSFitting                                  ... on

GRIDX 2
-------
General Integration Accuracy     IntAcc      ... 4.020
Radial Grid Type                 RadialGrid  ... OptM3 with GC (2021)
Angular Grid (max. ang.)         AngularGrid ... 2 (Lebedev-110)
Angular grid pruning method      GridPruning ... 4 (adaptive)
Weight generation scheme         WeightScheme... mBecke (2022)
Basis function cutoff            BFCut       ... 1.0000e-11
Integration weight cutoff        WCut        ... 1.0000e-14
Partially contracted basis set               ... on
Rotationally invariant grid construction     ... off
Angular grids for H and He will be reduced by one unit
Diffuse basis detected: some atoms will have their outermost
                        angular grid increased by 1.

Total number of grid points                  ...    28400
Total number of batches                      ...      230
Average number of points per batch           ...      123
Average number of grid points per atom       ...     1893
UseSFitting                                  ... on

GRIDX 3
-------
General Integration Accuracy     IntAcc      ... 4.338
Radial Grid Type                 RadialGrid  ... OptM3 with GC (2021)
Angular Grid (max. ang.)         AngularGrid ... 3 (Lebedev-194)
Angular grid pruning method      GridPruning ... 4 (adaptive)
Weight generation scheme         WeightScheme... mBecke (2022)
Basis function cutoff            BFCut       ... 1.0000e-11
Integration weight cutoff        WCut        ... 1.0000e-14
Partially contracted basis set               ... on
Rotationally invariant grid construction     ... off
Angular grids for H and He will be reduced by one unit
Diffuse basis detected: some atoms will have their outermost
                        angular grid increased by 1.

Total number of grid points                  ...    61870
Total number of batches                      ...      491
Average number of points per batch           ...      126
Average number of grid points per atom       ...     4125
UseSFitting                                  ... on
Grids setup in   1.7 sec
Initializing property integral containers    ... done (  0.0 sec)

SHARK setup successfully completed in   2.2 seconds

Maximum memory used throughout the entire STARTUP-calculation: 71.5 MB
-------------------------------------------------------------------------------
                                 ORCA GUESS
                   Start orbitals & Density for SCF / CASSCF
-------------------------------------------------------------------------------

------------
SCF SETTINGS
------------
Hamiltonian:
 Density Functional     Method          .... DFT(GTOs)
 Exchange Functional    Exchange        .... B88
   X-Alpha parameter    XAlpha          ....  0.666667
   Becke's b parameter  XBeta           ....  0.004200
 Correlation Functional Correlation     .... LYP
 LDA part of GGA corr.  LDAOpt          .... VWN-5
 Gradients option       PostSCFGGA      .... off
 Hybrid DFT is turned on
   Fraction HF Exchange ScalHFX         ....  0.200000
   Scaling of DF-GGA-X  ScalDFX         ....  0.720000
   Scaling of DF-GGA-C  ScalDFC         ....  0.810000
   Scaling of DF-LDA-C  ScalLDAC        ....  1.000000
   Perturbative correction              ....  0.000000
   NL short-range parameter             ....  4.800000
 RI-approximation to the Coulomb term is turned on
   Number of AuxJ basis functions       .... 621
   RIJ-COSX (HFX calculated with COS-X)).... on


General Settings:
 Integral files         IntName         .... HFE_347pcf2_gauche2
 Hartree-Fock type      HFTyp           .... RHF
 Total Charge           Charge          ....    0
 Multiplicity           Mult            ....    1
 Number of Electrons    NEL             ....   98
 Basis Dimension        Dim             ....  522
 Nuclear Repulsion      ENuc            ....    863.2219432483 Eh

Convergence Acceleration:
 AO-DIIS                CNVDIIS         .... on
   Start iteration      DIISMaxIt       ....    12
   Startup error        DIISStart       ....  0.200000
   # of expansion vecs  DIISMaxEq       ....     5
   Bias factor          DIISBfac        ....   1.050
   Max. coefficient     DIISMaxC        ....  10.000
 MO-DIIS                CNVKDIIS        .... off
 Trust-Rad. Augm. Hess. CNVTRAH         .... auto
   Auto Start mean grad. ratio tolernc. ....  1.125000
   Auto Start start iteration           ....    50
   Auto Start num. interpolation iter.  ....    10
   Max. Number of Micro iterations      ....    24
   Max. Number of Macro iterations      .... Maxiter - #DIIS iter
   Number of Davidson start vectors     ....     2
   Converg. threshold    (grad. norm)   ....   1.000e-05
   Grad. Scal. Fac. for Micro threshold ....   0.100
   Minimum threshold for Micro iter.    ....   1.000e-02
   NR start threshold (gradient norm)   ....   1.000e-04
   Initial trust radius                 ....   0.400
   Minimum AH scaling param. (alpha)    ....   1.000
   Maximum AH scaling param. (alpha)    .... 1000.000
   Quad. conv. algorithm                .... NR
   White noise on init. David. guess    .... on
   Maximum white noise                  ....   0.010
   Pseudo random numbers                .... off
   Inactive MOs                         .... canonical
   Orbital update algorithm             .... Taylor
   Preconditioner                       .... Diag
   Full preconditioner red. dimension   ....   250
 SOSCF                 CNVSOSCF           .... on
   Start iteration     SOSCFMaxIt         ....   150
   Startup grad/error  SOSCFStart         ....  0.003300
   Hessian update      SOSCFHessUp        .... L-BFGS
   Autom. constraints  SOSCFAutoConstrain .... off
 Level Shifting         CNVShift        .... on
   Level shift para.    LevelShift      ....    0.2500
   Turn off err/grad.   ShiftErr        ....    0.0010
 Zerner damping         CNVZerner       .... off
 Static damping         CNVDamp         .... on
   Fraction old density DampFac         ....    0.7000
   Max. Damping (<1)    DampMax         ....    0.9800
   Min. Damping (>=0)   DampMin         ....    0.0000
   Turn off err/grad.   DampErr         ....    0.1000

SCF Procedure:
 Maximum # iterations   MaxIter         ....   125
 SCF integral mode      SCFMode         .... Direct
   Integral package                     .... SHARK and LIBINT hybrid scheme
 Reset frequency        DirectResetFreq ....    20
 Integral Threshold     Thresh          ....  2.500e-11 Eh
 Primitive CutOff       TCut            ....  2.500e-12 Eh

Convergence Tolerance:
 Convergence Check Mode ConvCheckMode   .... Total+1el-Energy
 Convergence forced     ConvForced      .... 0
 Energy Change          TolE            ....  1.000e-08 Eh
 1-El. energy change                    ....  1.000e-05 Eh
 Orbital Gradient       TolG            ....  1.000e-05
 Orbital Rotation angle TolX            ....  1.000e-05
 DIIS Error             TolErr          ....  5.000e-07

------------------------------
INITIAL GUESS: MODEL POTENTIAL
------------------------------
Loading Hartree-Fock densities                     ... done
Calculating cut-offs                               ... done
Initializing the effective Hamiltonian             ... done
Setting up the integral package (SHARK)            ... done
Starting the Coulomb interaction                   ... done (  -0.1 sec)
Making the grid                                    ... done (   0.2 sec)
Mapping shells                                     ... done
Starting the XC term evaluation                    ... done (   0.6 sec)
  promolecular density results
     # of electrons  =     97.999531963
     EX              =   -100.082462140
     EC              =     -3.647631392
     EX+EC           =   -103.730093532
Transforming the Hamiltonian                       ... done (   0.0 sec)
Diagonalizing the Hamiltonian                      ... done (   0.0 sec)
Back transforming the eigenvectors                 ... done (   0.0 sec)
Now organizing SCF variables                       ... done
                      ------------------
                      INITIAL GUESS DONE (   0.7 sec)
                      ------------------
             **** ENERGY FILE WAS UPDATED (HFE_347pcf2_gauche2.en.tmp) ****
Finished Guess after   0.9 sec
Maximum memory used throughout the entire GUESS-calculation: 53.5 MB

-------------------------------------------------------------------------------------------
                                      ORCA LEAN-SCF
                              memory conserving SCF solver
-------------------------------------------------------------------------------------------

----------------------------------------D-I-I-S--------------------------------------------
Iteration    Energy (Eh)           Delta-E    RMSDP     MaxDP     DIISErr   Damp  Time(sec)
-------------------------------------------------------------------------------------------
               ***  Starting incremental Fock matrix formation  ***
    1    -928.0947607095647527     0.00e+00  9.84e-04  6.92e-02  2.24e-01  0.700  23.1
    2    -928.2014739042617748    -1.07e-01  5.43e-04  4.21e-02  8.94e-02  0.700   8.2
                               ***Turning on AO-DIIS***
    3    -928.2372107212545416    -3.57e-02  2.38e-04  2.29e-02  2.46e-02  0.700   0.3
    4    -928.2612987989607518    -2.41e-02  5.02e-04  4.53e-02  1.32e-02  0.000   7.1
                              *** Initializing SOSCF ***
---------------------------------------S-O-S-C-F--------------------------------------
Iteration    Energy (Eh)           Delta-E    RMSDP     MaxDP     MaxGrad    Time(sec)
--------------------------------------------------------------------------------------
    5    -928.3166215177191134    -5.53e-02  5.85e-05  3.87e-03  2.34e-03     6.9
               *** Restarting incremental Fock matrix formation ***
    6    -928.3167150133399446    -9.35e-05  3.50e-05  2.74e-03  2.20e-04    17.3
    7    -928.3167156260133197    -6.13e-07  1.03e-05  5.87e-04  2.09e-04    12.2
    8    -928.3167207769956804    -5.15e-06  6.21e-06  4.77e-04  3.95e-05    11.6
    9    -928.3167208623706301    -8.54e-08  1.33e-06  6.60e-05  2.39e-05    10.8
   10    -928.3167209188511606    -5.65e-08  1.71e-06  1.16e-04  8.98e-06     8.9
   11    -928.3167209206026200    -1.75e-09  1.02e-06  7.85e-05  6.99e-06     8.9
                 **** Energy Check signals convergence ****

               *****************************************************
               *                     SUCCESS                       *
               *           SCF CONVERGED AFTER  11 CYCLES          *
               *****************************************************

Recomputing exchange energy using gridx3       ... done (   30.082 sec)
Old exchange energy                            :    -20.092974387 Eh
New exchange energy                            :    -20.092984674 Eh
Exchange energy change after final integration :     -0.000010287 Eh
Total energy after final integration           :   -928.316731207 Eh
             **** ENERGY FILE WAS UPDATED (HFE_347pcf2_gauche2.en.tmp) ****

----------------
TOTAL SCF ENERGY
----------------

Total Energy       :       -928.31673120715459 Eh          -25260.78249 eV

Components:
Nuclear Repulsion  :        863.22194324825341 Eh           23489.46326 eV
Electronic Energy  :      -1791.53866416834694 Eh          -48750.24547 eV
One Electron Energy:      -3004.01792380889947 Eh          -81743.48347 eV
Two Electron Energy:       1212.47925964055253 Eh           32993.23800 eV

Virial components:
Potential Energy   :      -1854.09410460945992 Eh          -50452.46554 eV
Kinetic Energy     :        925.77737340230533 Eh           25191.68305 eV
Virial Ratio       :          2.00274294649859

DFT components:
N(Alpha)           :       49.000029976136 electrons
N(Beta)            :       49.000029976136 electrons
N(Total)           :       98.000059952271 electrons
E(X)               :      -80.054530153549 Eh       
E(C)               :       -4.264600924165 Eh       
E(XC)              :      -84.319131077714 Eh       

---------------
SCF CONVERGENCE
---------------

  Last Energy change         ...    1.7515e-09  Tolerance :   1.0000e-08
  Last MAX-Density change    ...    7.8492e-05  Tolerance :   1.0000e-07
  Last RMS-Density change    ...    1.0205e-06  Tolerance :   5.0000e-09
  Last DIIS Error            ...    2.3435e-03  Tolerance :   5.0000e-07
  Last Orbital Gradient      ...    6.9898e-06  Tolerance :   1.0000e-05
  Last Orbital Rotation      ...    5.3606e-06  Tolerance :   1.0000e-05


----------------
ORBITAL ENERGIES
----------------

  NO   OCC          E(Eh)            E(eV) 
   0   2.0000     -24.741116      -673.2400 
   1   2.0000     -24.739433      -673.1942 
   2   2.0000     -24.737100      -673.1307 
   3   2.0000     -24.729353      -672.9199 
   4   2.0000     -24.727785      -672.8772 
   5   2.0000     -24.719331      -672.6472 
   6   2.0000     -24.716995      -672.5836 
   7   2.0000     -19.199060      -522.4330 
   8   2.0000     -10.436025      -283.9787 
   9   2.0000     -10.434898      -283.9480 
  10   2.0000     -10.382868      -282.5322 
  11   2.0000     -10.267157      -279.3835 
  12   2.0000      -1.324584       -36.0438 
  13   2.0000      -1.323251       -36.0075 
  14   2.0000      -1.303445       -35.4686 
  15   2.0000      -1.257030       -34.2055 
  16   2.0000      -1.244365       -33.8609 
  17   2.0000      -1.240548       -33.7570 
  18   2.0000      -1.234778       -33.6000 
  19   2.0000      -1.102512       -30.0009 
  20   2.0000      -0.830362       -22.5953 
  21   2.0000      -0.791332       -21.5333 
  22   2.0000      -0.705070       -19.1859 
  23   2.0000      -0.682577       -18.5739 
  24   2.0000      -0.637146       -17.3376 
  25   2.0000      -0.626687       -17.0530 
  26   2.0000      -0.623923       -16.9778 
  27   2.0000      -0.608746       -16.5648 
  28   2.0000      -0.603916       -16.4334 
  29   2.0000      -0.589719       -16.0471 
  30   2.0000      -0.579110       -15.7584 
  31   2.0000      -0.561538       -15.2802 
  32   2.0000      -0.513416       -13.9708 
  33   2.0000      -0.500813       -13.6278 
  34   2.0000      -0.486430       -13.2364 
  35   2.0000      -0.482749       -13.1363 
  36   2.0000      -0.481043       -13.0899 
  37   2.0000      -0.477115       -12.9830 
  38   2.0000      -0.473187       -12.8761 
  39   2.0000      -0.460038       -12.5183 
  40   2.0000      -0.451611       -12.2890 
  41   2.0000      -0.445358       -12.1188 
  42   2.0000      -0.442587       -12.0434 
  43   2.0000      -0.437645       -11.9089 
  44   2.0000      -0.433839       -11.8054 
  45   2.0000      -0.425256       -11.5718 
  46   2.0000      -0.409081       -11.1317 
  47   2.0000      -0.373968       -10.1762 
  48   2.0000      -0.336014        -9.1434 
  49   0.0000      -0.009998        -0.2721 
  50   0.0000       0.001830         0.0498 
  51   0.0000       0.014997         0.4081 
  52   0.0000       0.017448         0.4748 
  53   0.0000       0.035707         0.9716 
  54   0.0000       0.045151         1.2286 
  55   0.0000       0.049191         1.3385 
  56   0.0000       0.067457         1.8356 
  57   0.0000       0.073142         1.9903 
  58   0.0000       0.075971         2.0673 
  59   0.0000       0.084736         2.3058 
*Only the first 10 virtual orbitals were printed.

                    ********************************
                    * MULLIKEN POPULATION ANALYSIS *
                    ********************************

-----------------------
MULLIKEN ATOMIC CHARGES
-----------------------
   0 F :   -0.465001
   1 F :   -0.462123
   2 F :   -0.446438
   3 F :   -0.460892
   4 F :   -0.470762
   5 F :   -0.467606
   6 F :   -0.470018
   7 O :   -0.848275
   8 C :    1.504625
   9 C :    0.113428
  10 C :    0.801935
  11 C :    1.557489
  12 H :    0.054967
  13 H :    0.042444
  14 H :    0.016228
Sum of atomic charges:   -0.0000000

--------------------------------
MULLIKEN REDUCED ORBITAL CHARGES
--------------------------------
  0 F s       :     4.071312  s :     4.071312
      pz      :     1.577049  p :     5.370009
      px      :     1.961418
      py      :     1.831542
      dz2     :     0.006826  d :     0.023016
      dxz     :     0.005807
      dyz     :     0.005446
      dx2y2   :     0.002688
      dxy     :     0.002250
      f0      :     0.000173  f :     0.000664
      f+1     :     0.000086
      f-1     :     0.000222
      f+2     :     0.000089
      f-2     :     0.000072
      f+3     :     0.000009
      f-3     :     0.000012

  1 F s       :     4.100516  s :     4.100516
      pz      :     1.747637  p :     5.338336
      px      :     1.791941
      py      :     1.798758
      dz2     :     0.005734  d :     0.022597
      dxz     :     0.003864
      dyz     :     0.004186
      dx2y2   :     0.005341
      dxy     :     0.003471
      f0      :     0.000074  f :     0.000675
      f+1     :     0.000106
      f-1     :     0.000092
      f+2     :     0.000109
      f-2     :     0.000177
      f+3     :     0.000054
      f-3     :     0.000063

  2 F s       :     4.045807  s :     4.045807
      pz      :     1.772734  p :     5.374717
      px      :     1.802294
      py      :     1.799690
      dz2     :     0.006688  d :     0.025265
      dxz     :     0.003673
      dyz     :     0.005318
      dx2y2   :     0.006361
      dxy     :     0.003226
      f0      :     0.000067  f :     0.000648
      f+1     :     0.000104
      f-1     :     0.000092
      f+2     :     0.000104
      f-2     :     0.000165
      f+3     :     0.000054
      f-3     :     0.000063

  3 F s       :     4.072901  s :     4.072901
      pz      :     1.568456  p :     5.363928
      px      :     1.959955
      py      :     1.835516
      dz2     :     0.006434  d :     0.023408
      dxz     :     0.006196
      dyz     :     0.005908
      dx2y2   :     0.002840
      dxy     :     0.002031
      f0      :     0.000162  f :     0.000656
      f+1     :     0.000085
      f-1     :     0.000221
      f+2     :     0.000096
      f-2     :     0.000069
      f+3     :     0.000009
      f-3     :     0.000013

  4 F s       :     4.100484  s :     4.100484
      pz      :     1.530097  p :     5.346549
      px      :     1.951388
      py      :     1.865065
      dz2     :     0.006411  d :     0.023043
      dxz     :     0.006904
      dyz     :     0.005576
      dx2y2   :     0.002054
      dxy     :     0.002097
      f0      :     0.000186  f :     0.000686
      f+1     :     0.000109
      f-1     :     0.000232
      f+2     :     0.000079
      f-2     :     0.000067
      f+3     :     0.000006
      f-3     :     0.000008

  5 F s       :     4.105058  s :     4.105058
      pz      :     1.785267  p :     5.339548
      px      :     1.718785
      py      :     1.835495
      dz2     :     0.005652  d :     0.022319
      dxz     :     0.004182
      dyz     :     0.003492
      dx2y2   :     0.005200
      dxy     :     0.003792
      f0      :     0.000069  f :     0.000682
      f+1     :     0.000116
      f-1     :     0.000073
      f+2     :     0.000099
      f-2     :     0.000179
      f+3     :     0.000069
      f-3     :     0.000077

  6 F s       :     4.100637  s :     4.100637
      pz      :     1.946630  p :     5.345738
      px      :     1.892955
      py      :     1.506153
      dz2     :     0.001935  d :     0.022957
      dxz     :     0.001517
      dyz     :     0.006565
      dx2y2   :     0.006169
      dxy     :     0.006771
      f0      :     0.000061  f :     0.000686
      f+1     :     0.000022
      f-1     :     0.000117
      f+2     :     0.000069
      f-2     :     0.000045
      f+3     :     0.000184
      f-3     :     0.000189

  7 O s       :     3.984178  s :     3.984178
      pz      :     1.684057  p :     4.797830
      px      :     1.299374
      py      :     1.814399
      dz2     :     0.012715  d :     0.064443
      dxz     :     0.015762
      dyz     :     0.010768
      dx2y2   :     0.010724
      dxy     :     0.014474
      f0      :     0.000183  f :     0.001823
      f+1     :     0.000207
      f-1     :     0.000135
      f+2     :     0.000337
      f-2     :     0.000243
      f+3     :     0.000356
      f-3     :     0.000362

  8 C s       :     3.164294  s :     3.164294
      pz      :     0.459088  p :     1.274573
      px      :     0.452202
      py      :     0.363283
      dz2     :     0.008770  d :     0.016052
      dxz     :    -0.032925
      dyz     :    -0.005790
      dx2y2   :     0.047901
      dxy     :    -0.001906
      f0      :     0.006487  f :     0.040456
      f+1     :     0.006803
      f-1     :     0.006450
      f+2     :     0.006396
      f-2     :     0.006239
      f+3     :     0.003482
      f-3     :     0.004599

  9 C s       :     3.319065  s :     3.319065
      pz      :     0.812183  p :     2.445381
      px      :     0.745120
      py      :     0.888078
      dz2     :     0.012251  d :     0.111014
      dxz     :     0.020907
      dyz     :    -0.007129
      dx2y2   :     0.027774
      dxy     :     0.057212
      f0      :     0.001001  f :     0.011111
      f+1     :     0.001817
      f-1     :     0.001632
      f+2     :     0.002147
      f-2     :     0.001923
      f+3     :     0.001364
      f-3     :     0.001228

 10 C s       :     3.313192  s :     3.313192
      pz      :     0.473015  p :     1.769928
      px      :     0.805886
      py      :     0.491027
      dz2     :     0.031717  d :     0.083567
      dxz     :    -0.005081
      dyz     :     0.027281
      dx2y2   :     0.042287
      dxy     :    -0.012637
      f0      :     0.005682  f :     0.031379
      f+1     :     0.004635
      f-1     :     0.006056
      f+2     :     0.004690
      f-2     :     0.006013
      f+3     :     0.002356
      f-3     :     0.001947

 11 C s       :     3.205351  s :     3.205351
      pz      :     0.406570  p :     1.176083
      px      :     0.341160
      py      :     0.428353
      dz2     :     0.001501  d :     0.012439
      dxz     :     0.008956
      dyz     :    -0.023284
      dx2y2   :     0.051087
      dxy     :    -0.025820
      f0      :     0.008214  f :     0.048638
      f+1     :     0.006550
      f-1     :     0.007805
      f+2     :     0.006547
      f-2     :     0.007040
      f+3     :     0.006246
      f-3     :     0.006236

 12 H s       :     0.903937  s :     0.903937
      pz      :     0.015955  p :     0.037994
      px      :     0.001731
      py      :     0.020307
      dz2     :     0.000243  d :     0.003103
      dxz     :     0.000088
      dyz     :     0.001079
      dx2y2   :     0.000539
      dxy     :     0.001153

 13 H s       :     0.914313  s :     0.914313
      pz      :     0.019955  p :     0.040348
      px      :     0.005611
      py      :     0.014782
      dz2     :     0.001066  d :     0.002895
      dxz     :     0.000965
      dyz     :     0.000414
      dx2y2   :     0.000245
      dxy     :     0.000205

 14 H s       :     0.934478  s :     0.934478
      pz      :     0.018895  p :     0.046267
      px      :     0.027251
      py      :     0.000121
      dz2     :     0.000372  d :     0.003026
      dxz     :     0.000866
      dyz     :     0.000146
      dx2y2   :     0.000539
      dxy     :     0.001102



                     *******************************
                     * LOEWDIN POPULATION ANALYSIS *
                     *******************************

----------------------
LOEWDIN ATOMIC CHARGES
----------------------
   0 F :    0.218759
   1 F :    0.228685
   2 F :    0.221768
   3 F :    0.207176
   4 F :    0.209705
   5 F :    0.208900
   6 F :    0.204711
   7 O :    0.238370
   8 C :   -0.625961
   9 C :   -0.007242
  10 C :   -0.314650
  11 C :   -0.679262
  12 H :   -0.070671
  13 H :   -0.019887
  14 H :   -0.020399

-------------------------------
LOEWDIN REDUCED ORBITAL CHARGES
-------------------------------
  0 F s       :     3.550493  s :     3.550493
      pz      :     1.588199  p :     5.140149
      px      :     1.810595
      py      :     1.741354
      dz2     :     0.027634  d :     0.088739
      dxz     :     0.019830
      dyz     :     0.029418
      dx2y2   :     0.007612
      dxy     :     0.004244
      f0      :     0.000454  f :     0.001861
      f+1     :     0.000277
      f-1     :     0.000607
      f+2     :     0.000280
      f-2     :     0.000187
      f+3     :     0.000017
      f-3     :     0.000038

  1 F s       :     3.557303  s :     3.557303
      pz      :     1.689890  p :     5.128262
      px      :     1.713906
      py      :     1.724466
      dz2     :     0.016590  d :     0.083935
      dxz     :     0.018005
      dyz     :     0.020267
      dx2y2   :     0.015888
      dxy     :     0.013185
      f0      :     0.000213  f :     0.001814
      f+1     :     0.000284
      f-1     :     0.000216
      f+2     :     0.000309
      f-2     :     0.000468
      f+3     :     0.000155
      f-3     :     0.000168

  2 F s       :     3.537039  s :     3.537039
      pz      :     1.699609  p :     5.141934
      px      :     1.716287
      py      :     1.726038
      dz2     :     0.020160  d :     0.097422
      dxz     :     0.019653
      dyz     :     0.020082
      dx2y2   :     0.021893
      dxy     :     0.015635
      f0      :     0.000223  f :     0.001838
      f+1     :     0.000272
      f-1     :     0.000214
      f+2     :     0.000348
      f-2     :     0.000416
      f+3     :     0.000165
      f-3     :     0.000200

  3 F s       :     3.557906  s :     3.557906
      pz      :     1.584891  p :     5.142747
      px      :     1.818496
      py      :     1.739361
      dz2     :     0.026706  d :     0.090343
      dxz     :     0.022865
      dyz     :     0.027296
      dx2y2   :     0.008029
      dxy     :     0.005447
      f0      :     0.000430  f :     0.001827
      f+1     :     0.000298
      f-1     :     0.000562
      f+2     :     0.000281
      f-2     :     0.000201
      f+3     :     0.000017
      f-3     :     0.000038

  4 F s       :     3.559324  s :     3.559324
      pz      :     1.569190  p :     5.142509
      px      :     1.811541
      py      :     1.761779
      dz2     :     0.029112  d :     0.086600
      dxz     :     0.022874
      dyz     :     0.024143
      dx2y2   :     0.006059
      dxy     :     0.004412
      f0      :     0.000482  f :     0.001862
      f+1     :     0.000340
      f-1     :     0.000610
      f+2     :     0.000214
      f-2     :     0.000180
      f+3     :     0.000012
      f-3     :     0.000024

  5 F s       :     3.561074  s :     3.561074
      pz      :     1.711259  p :     5.142788
      px      :     1.684393
      py      :     1.747136
      dz2     :     0.018091  d :     0.085382
      dxz     :     0.019853
      dyz     :     0.015146
      dx2y2   :     0.016634
      dxy     :     0.015658
      f0      :     0.000217  f :     0.001857
      f+1     :     0.000312
      f-1     :     0.000173
      f+2     :     0.000277
      f-2     :     0.000476
      f+3     :     0.000163
      f-3     :     0.000239

  6 F s       :     3.559855  s :     3.559855
      pz      :     1.811787  p :     5.145872
      px      :     1.783883
      py      :     1.550201
      dz2     :     0.009717  d :     0.087679
      dxz     :     0.003063
      dyz     :     0.020458
      dx2y2   :     0.025938
      dxy     :     0.028503
      f0      :     0.000175  f :     0.001884
      f+1     :     0.000063
      f-1     :     0.000298
      f+2     :     0.000203
      f-2     :     0.000111
      f+3     :     0.000537
      f-3     :     0.000496

  7 O s       :     3.188821  s :     3.188821
      pz      :     1.499997  p :     4.301318
      px      :     1.233021
      py      :     1.568299
      dz2     :     0.050271  d :     0.265027
      dxz     :     0.062053
      dyz     :     0.028922
      dx2y2   :     0.069937
      dxy     :     0.053844
      f0      :     0.000739  f :     0.006464
      f+1     :     0.001048
      f-1     :     0.000395
      f+2     :     0.001389
      f-2     :     0.000868
      f+3     :     0.001013
      f-3     :     0.001012

  8 C s       :     2.546670  s :     2.546670
      pz      :     0.730963  p :     2.421379
      px      :     0.808106
      py      :     0.882309
      dz2     :     0.302280  d :     1.445203
      dxz     :     0.298547
      dyz     :     0.296915
      dx2y2   :     0.281637
      dxy     :     0.265823
      f0      :     0.035545  f :     0.212710
      f+1     :     0.034781
      f-1     :     0.033763
      f+2     :     0.034759
      f-2     :     0.031844
      f+3     :     0.019096
      f-3     :     0.022922

  9 C s       :     2.533848  s :     2.533848
      pz      :     0.867541  p :     2.621442
      px      :     0.845970
      py      :     0.907931
      dz2     :     0.183431  d :     0.783439
      dxz     :     0.159098
      dyz     :     0.113873
      dx2y2   :     0.194373
      dxy     :     0.132664
      f0      :     0.006300  f :     0.068513
      f+1     :     0.011469
      f-1     :     0.009151
      f+2     :     0.011733
      f-2     :     0.012963
      f+3     :     0.009256
      f-3     :     0.007641

 10 C s       :     2.557848  s :     2.557848
      pz      :     0.706298  p :     2.456238
      px      :     0.897633
      py      :     0.852307
      dz2     :     0.261669  d :     1.133672
      dxz     :     0.216139
      dyz     :     0.275667
      dx2y2   :     0.225151
      dxy     :     0.155046
      f0      :     0.029870  f :     0.166893
      f+1     :     0.025078
      f-1     :     0.034044
      f+2     :     0.024719
      f-2     :     0.030418
      f+3     :     0.012064
      f-3     :     0.010700

 11 C s       :     2.551207  s :     2.551207
      pz      :     0.757267  p :     2.389760
      px      :     0.891101
      py      :     0.741392
      dz2     :     0.310080  d :     1.490475
      dxz     :     0.282904
      dyz     :     0.309510
      dx2y2   :     0.300101
      dxy     :     0.287881
      f0      :     0.040742  f :     0.247819
      f+1     :     0.032586
      f-1     :     0.042163
      f+2     :     0.032958
      f-2     :     0.035353
      f+3     :     0.030863
      f-3     :     0.033154

 12 H s       :     0.743964  s :     0.743964
      pz      :     0.062021  p :     0.289015
      px      :     0.093946
      py      :     0.133049
      dz2     :     0.003549  d :     0.037692
      dxz     :     0.000981
      dyz     :     0.010140
      dx2y2   :     0.012270
      dxy     :     0.010752

 13 H s       :     0.760626  s :     0.760626
      pz      :     0.108334  p :     0.226175
      px      :     0.051207
      py      :     0.066633
      dz2     :     0.011414  d :     0.033086
      dxz     :     0.008903
      dyz     :     0.009486
      dx2y2   :     0.002097
      dxy     :     0.001186

 14 H s       :     0.781042  s :     0.781042
      pz      :     0.044373  p :     0.207695
      px      :     0.120754
      py      :     0.042567
      dz2     :     0.003979  d :     0.031663
      dxz     :     0.008410
      dyz     :     0.000937
      dx2y2   :     0.009345
      dxy     :     0.008992



                      *****************************
                      * MAYER POPULATION ANALYSIS *
                      *****************************

  NA   - Mulliken gross atomic population
  ZA   - Total nuclear charge
  QA   - Mulliken gross atomic charge
  VA   - Mayer's total valence
  BVA  - Mayer's bonded valence
  FA   - Mayer's free valence

  ATOM       NA         ZA         QA         VA         BVA        FA
  0 F      9.4650     9.0000    -0.4650     0.6886     0.6886     0.0000
  1 F      9.4621     9.0000    -0.4621     0.6500     0.6500    -0.0000
  2 F      9.4464     9.0000    -0.4464     0.6872     0.6872     0.0000
  3 F      9.4609     9.0000    -0.4609     0.7677     0.7677     0.0000
  4 F      9.4708     9.0000    -0.4708     0.7133     0.7133     0.0000
  5 F      9.4676     9.0000    -0.4676     0.6161     0.6161     0.0000
  6 F      9.4700     9.0000    -0.4700     0.6572     0.6572    -0.0000
  7 O      8.8483     8.0000    -0.8483     1.6773     1.6773    -0.0000
  8 C      4.4954     6.0000     1.5046     2.4945     2.4945    -0.0000
  9 C      5.8866     6.0000     0.1134     3.6155     3.6155     0.0000
 10 C      5.1981     6.0000     0.8019     2.9916     2.9916    -0.0000
 11 C      4.4425     6.0000     1.5575     2.5664     2.5664    -0.0000
 12 H      0.9450     1.0000     0.0550     0.9743     0.9743     0.0000
 13 H      0.9576     1.0000     0.0424     0.9782     0.9782    -0.0000
 14 H      0.9838     1.0000     0.0162     1.0278     1.0278     0.0000

  Mayer bond orders larger than 0.100000
B(  0-F ,  8-C ) :   0.5549 B(  1-F ,  8-C ) :   0.4904 B(  2-F ,  3-F ) :   0.1034 
B(  2-F , 10-C ) :   0.5882 B(  3-F , 10-C ) :   0.6342 B(  4-F , 11-C ) :   0.6140 
B(  5-F , 11-C ) :   0.5774 B(  6-F , 11-C ) :   0.5790 B(  7-O ,  8-C ) :   0.7265 
B(  7-O ,  9-C ) :   0.7443 B(  8-C , 10-C ) :   0.8131 B(  9-C , 11-C ) :   0.8279 
B(  9-C , 12-H ) :   1.0223 B(  9-C , 13-H ) :   1.0055 B( 10-C , 14-H ) :   1.0266 


-------
TIMINGS
-------

Total SCF time: 0 days 0 hours 2 min 33 sec 

Total time                  ....     153.645 sec
Sum of individual times     ....     145.582 sec  ( 94.8%)

SCF preparation             ....       0.133 sec  (  0.1%)
Fock matrix formation       ....     144.576 sec  ( 94.1%)
  Startup                   ....       0.014 sec  (  0.0% of F)
  Split-RI-J                ....       9.617 sec  (  6.7% of F)
  Chain of spheres X        ....     125.774 sec  ( 87.0% of F)
  XC integration            ....      16.978 sec  ( 11.7% of F)
    XC Preparation          ....       0.000 sec  (  0.0% of XC)
    Basis function eval.    ....       3.367 sec  ( 19.8% of XC)
    Density eval.           ....      10.354 sec  ( 61.0% of XC)
    XC-Functional eval.     ....       0.258 sec  (  1.5% of XC)
    XC-Potential eval.      ....       2.614 sec  ( 15.4% of XC)
Diagonalization             ....       0.000 sec  (  0.0%)
Density matrix formation    ....       0.078 sec  (  0.1%)
Total Energy calculation    ....       0.011 sec  (  0.0%)
Population analysis         ....       0.030 sec  (  0.0%)
Orbital Transformation      ....       0.108 sec  (  0.1%)
Orbital Orthonormalization  ....       0.000 sec  (  0.0%)
DIIS solution               ....       0.368 sec  (  0.2%)
SOSCF solution              ....       0.280 sec  (  0.2%)
Finished LeanSCF after 153.7 sec

Maximum memory used throughout the entire LEANSCF-calculation: 77.7 MB

------------------------------------------------------------------------------
                         ORCA PROPERTY INTEGRAL CALCULATIONS
------------------------------------------------------------------------------

GBWName                                   ... HFE_347pcf2_gauche2.gbw
Number of atoms                           ...     15
Number of basis functions                 ...    522
Max core memory                           ...   4096 MB

Dipole integrals                          ... YES
Quadrupole integrals                      ...  NO
Linear momentum integrals                 ...  NO
Angular momentum integrals                ...  NO
Higher moments length integrals           ...  NO
Higher moments velocity integrals         ...  NO
Kinetic energy integrals                  ...  NO
GIAO right hand sides                     ...  NO
GIAO dipole derivative integrals          ...  NO
SOC integrals                             ...  NO
EPR diamagnetic integrals (GIAO)          ...  NO
EPR gauge integrals                       ...  NO
Field gradient integrals                  ...  NO (   0 nuclei)
Spin-dipole/Fermi contact integrals       ...  NO (   0 nuclei)
Contact density integrals                 ...  NO (   0 nuclei)
Nucleus-orbit integrals                   ...  NO (   0 nuclei)
Geometric perturbations                   ...  NO (  15 nuclei)

Choice of electric origin   ... Center of mass
Position of electric origin ... ( -0.0293,  0.0155, -0.0075) 
Choice of magnetic origin   ... GIAO
Position of magnetic origin ... (  0.0000,  0.0000,  0.0000) 

Calculating integrals                     ... Electric Dipole (Length)     done (  0.0 sec)

Property integrals calculated in   0.0 sec

Maximum memory used throughout the entire PROPINT-calculation: 55.7 MB

-------------------------   --------------------
FINAL SINGLE POINT ENERGY      -928.316731207155
-------------------------   --------------------

------------------------------------------------------------------------------
                         ORCA SCF GRADIENT CALCULATION
------------------------------------------------------------------------------

Nuc. rep. gradient        (SHARK) ... done (  0.0 sec)
HCore & Overlap gradient  (SHARK) ... done (  0.5 sec)
Split-RIJ-J gradient      (SHARK) ... done (  3.5 sec)
COSX-gradient                     ... done ( 70.7 sec)
XC gradient                       ... done (  6.7 sec)

------------------
CARTESIAN GRADIENT
------------------

   1   F   :   -0.005544628   -0.000920736    0.000937734
   2   F   :    0.014902227   -0.009715279   -0.009027372
   3   F   :   -0.019399743   -0.006880808   -0.010764780
   4   F   :   -0.001999216    0.003870586   -0.001017796
   5   F   :    0.001988955    0.002673269   -0.006721657
   6   F   :   -0.007385411    0.003362140    0.002679818
   7   F   :    0.004042345   -0.005367459    0.000483820
   8   O   :   -0.032823050    0.006107405   -0.004767960
   9   C   :    0.036913686    0.017243158    0.013584543
  10   C   :    0.018415571   -0.010821329   -0.001835127
  11   C   :   -0.019279606   -0.020702164    0.004668104
  12   C   :    0.006356364    0.016952419    0.010523107
  13   H   :    0.000126075    0.006060369   -0.002423268
  14   H   :    0.002870041   -0.002486717    0.003567503
  15   H   :    0.000816391    0.000625147    0.000113330

Difference to translation invariance:
           :   -0.0000000000   -0.0000000000   -0.0000000000

Difference to rotation invariance:
           :   -0.0000336832    0.0002669190    0.0001217590

Norm of the Cartesian gradient     ...    0.0770559582
RMS gradient                       ...    0.0114868240
MAX gradient                       ...    0.0369136862

-------
TIMINGS
-------

Total SCF gradient time     ....       81.551 sec

Densities                   ....       0.004 sec  (  0.0%)
One electron gradient       ....       0.515 sec  (  0.6%)
RI-J Coulomb gradient       ....       3.546 sec  (  4.3%)
COSX gradient               ....      70.735 sec  ( 86.7%)
XC gradient                 ....       6.749 sec  (  8.3%)

Maximum memory used throughout the entire SCFGRAD-calculation: 90.4 MB
------------------------------------------------------------------------------
                         ORCA GEOMETRY RELAXATION STEP
------------------------------------------------------------------------------

Reading the OPT-File                    .... done
Getting information on internals        .... done
Copying old internal coords+grads       .... done
Making the new internal coordinates     .... (2022 redundants) done
Validating the new internal coordinates .... (2022 redundants) done
Calculating the B-matrix                .... done
Calculating the G,G- and P matrices     .... done
Transforming gradient to internals      .... done
Projecting the internal gradient        .... done
Number of atoms                         ....  15
Number of internal coordinates          ....  57
Current Energy                          ....  -928.316731207 Eh
Current gradient norm                   ....     0.077055958 Eh/bohr
Maximum allowed component of the step   ....  0.300
Current trust radius                    ....  0.300
Evaluating the initial hessian          ....  (Almloef) done
Projecting the Hessian                  .... done
Forming the augmented Hessian           .... done
Diagonalizing the augmented Hessian     .... done
Last element of RFO vector              ....  0.899067139
Lowest eigenvalues of augmented Hessian:
 -0.064732545  0.013131390  0.014639677  0.019703278  0.023817839
Length of the computed step             ....  0.486961164
Warning: the length of the step is outside the trust region - taking restricted step instead
The input lambda is                     ....     0.012131
   iter:   5  x=    0.003098  g= 1978.891031 f(x)=     7.499251
   iter:  10  x=   -0.107605  g=    3.405394 f(x)=     0.162399
   iter:  15  x=   -0.205659  g=    0.407588 f(x)=     0.000000
The output lambda is                    ....    -0.205659 (17 iterations)
The final length of the internal step   ....  0.300000000
Converting the step to Cartesian space:
 Initial RMS(Int)=    0.0397359707
Transforming coordinates:
 Iter   0:  RMS(Cart)=    0.2774501875 RMS(Int)=    1.1706335099
 Iter   5:  RMS(Cart)=    0.0000655208 RMS(Int)=    0.0000537471
 Iter  10:  RMS(Cart)=    0.0000000668 RMS(Int)=    0.0000000523
done
Storing new coordinates                 .... done

                                .--------------------.
          ----------------------|Geometry convergence|-------------------------
          Item                value                   Tolerance       Converged
          ---------------------------------------------------------------------
          RMS gradient        0.0206759375            0.0001000000      NO
          MAX gradient        0.0912589053            0.0003000000      NO
          RMS step            0.0397359707            0.0020000000      NO
          MAX step            0.1515175098            0.0040000000      NO
          -------------------------------------------------------------------------
          ........................................................
          Max(Bonds)      0.0308      Max(Angles)    8.68
          Max(Dihed)        4.85      Max(Improp)    0.00
          ---------------------------------------------------------------------

The optimization has not yet converged - more geometry cycles are needed


    ---------------------------------------------------------------------------
                         Redundant Internal Coordinates
                            (Angstroem and degrees)

        Definition                    Value    dE/dq     Step     New-Value
    ----------------------------------------------------------------------------
     1. B(C   8,F   1)                1.3540  0.019182 -0.0127    1.3413   
     2. B(C   8,O   7)                1.4217  0.005720 -0.0043    1.4174   
     3. B(C   8,F   0)                1.3550  0.000917 -0.0006    1.3543   
     4. B(C   9,O   7)                1.4207 -0.006888  0.0052    1.4258   
     5. B(C  10,F   3)                1.3555  0.002852 -0.0019    1.3536   
     6. B(C  10,C   8)                1.5052 -0.035831  0.0308    1.5361   
     7. B(C  10,F   2)                1.3559  0.000453 -0.0003    1.3556   
     8. B(C  11,F   6)                1.3498  0.003741 -0.0024    1.3473   
     9. B(C  11,F   5)                1.3498  0.007907 -0.0052    1.3446   
    10. B(C  11,C   9)                1.5066 -0.007755  0.0067    1.5133   
    11. B(C  11,F   4)                1.3510  0.007097 -0.0047    1.3464   
    12. B(H  12,C   9)                1.0875  0.005976 -0.0056    1.0819   
    13. B(H  13,C   9)                1.0942  0.004400 -0.0042    1.0901   
    14. B(H  14,C  10)                1.0929  0.000836 -0.0008    1.0921   
    15. A(C   8,O   7,C   9)          112.56 -0.091259    8.68    121.24   
    16. A(F   1,C   8,C  10)          110.06  0.025999   -3.02    107.05   
    17. A(F   1,C   8,O   7)          109.61  0.039694   -4.33    105.27   
    18. A(O   7,C   8,C  10)          110.34 -0.084232    8.60    118.95   
    19. A(F   0,C   8,C  10)          109.68  0.015940   -0.96    108.71   
    20. A(F   0,C   8,F   1)          107.97 -0.005601   -0.46    107.52   
    21. A(F   0,C   8,O   7)          109.13  0.010053   -0.03    109.10   
    22. A(H  12,C   9,H  13)          111.29  0.002075   -0.10    111.19   
    23. A(C  11,C   9,H  13)          110.80  0.003939   -0.69    110.11   
    24. A(O   7,C   9,H  13)          111.36 -0.005612    0.41    111.77   
    25. A(C  11,C   9,H  12)          101.41 -0.010091    1.23    102.64   
    26. A(O   7,C   9,H  12)          112.47 -0.003981    0.60    113.07   
    27. A(O   7,C   9,C  11)          109.08  0.014065   -1.46    107.62   
    28. A(F   3,C  10,H  14)          109.09  0.007111   -0.96    108.12   
    29. A(F   2,C  10,H  14)          109.06  0.007401   -1.00    108.06   
    30. A(F   2,C  10,F   3)          106.81  0.000795    0.53    107.34   
    31. A(F   3,C  10,C   8)          109.51  0.009488   -0.72    108.79   
    32. A(C   8,C  10,H  14)          112.52  0.008889   -1.20    111.32   
    33. A(F   2,C  10,C   8)          109.68 -0.033907    3.42    113.10   
[...]
freq.     294.25  E(vib)   ...       0.31 
freq.     321.70  E(vib)   ...       0.28 
freq.     356.35  E(vib)   ...       0.26 
freq.     361.03  E(vib)   ...       0.25 
freq.     435.20  E(vib)   ...       0.20 
freq.     511.16  E(vib)   ...       0.16 
freq.     529.63  E(vib)   ...       0.15 
freq.     541.34  E(vib)   ...       0.15 
freq.     573.88  E(vib)   ...       0.13 
freq.     604.18  E(vib)   ...       0.12 
freq.     660.73  E(vib)   ...       0.10 
freq.     704.27  E(vib)   ...       0.09 
freq.     843.14  E(vib)   ...       0.06 
freq.     871.34  E(vib)   ...       0.05 
freq.     970.56  E(vib)   ...       0.04 
freq.    1083.64  E(vib)   ...       0.02 
freq.    1092.47  E(vib)   ...       0.02 
freq.    1115.60  E(vib)   ...       0.02 
freq.    1132.71  E(vib)   ...       0.02 
freq.    1156.71  E(vib)   ...       0.02 
freq.    1182.70  E(vib)   ...       0.02 
freq.    1200.10  E(vib)   ...       0.02 
freq.    1263.63  E(vib)   ...       0.01 
freq.    1304.60  E(vib)   ...       0.01 
freq.    1323.07  E(vib)   ...       0.01 
freq.    1360.96  E(vib)   ...       0.01 
freq.    1407.02  E(vib)   ...       0.01 
freq.    1445.01  E(vib)   ...       0.01 
freq.    1495.14  E(vib)   ...       0.01 
freq.    3075.62  E(vib)   ...       0.00 
freq.    3101.07  E(vib)   ...       0.00 
freq.    3138.28  E(vib)   ...       0.00 

------------
INNER ENERGY
------------

The inner energy is: U= E(el) + E(ZPE) + E(vib) + E(rot) + E(trans)
    E(el)   - is the total energy from the electronic structure calculation
              = E(kin-el) + E(nuc-el) + E(el-el) + E(nuc-nuc)
    E(ZPE)  - the the zero temperature vibrational energy from the frequency calculation
    E(vib)  - the the finite temperature correction to E(ZPE) due to population
              of excited vibrational states
    E(rot)  - is the rotational thermal energy
    E(trans)- is the translational thermal energy

Summary of contributions to the inner energy U:
Electronic energy                ...   -928.33468072 Eh
Zero point energy                ...      0.08255988 Eh      51.81 kcal/mol
Thermal vibrational correction   ...      0.00959272 Eh       6.02 kcal/mol
Thermal rotational correction    ...      0.00152006 Eh       0.95 kcal/mol
Thermal translational correction ...      0.00152006 Eh       0.95 kcal/mol
-----------------------------------------------------------------------
Total thermal energy                   -928.23948800 Eh


Summary of corrections to the electronic energy:
(perhaps to be used in another calculation)
Total thermal correction                  0.01263285 Eh       7.93 kcal/mol
Non-thermal (ZPE) correction              0.08255988 Eh      51.81 kcal/mol
-----------------------------------------------------------------------
Total correction                          0.09519272 Eh      59.73 kcal/mol


--------
ENTHALPY
--------

The enthalpy is H = U + kB*T
                kB is Boltzmann's constant
Total thermal energy              ...   -928.23948800 Eh 
Thermal Enthalpy correction       ...      0.00101341 Eh       0.64 kcal/mol
-----------------------------------------------------------------------
Total Enthalpy                    ...   -928.23847459 Eh


Note: Only C1 symmetry has been detected, increase convergence thresholds 
      if your molecule has a higher symmetry. Symmetry factor of 1.0 is   
      used for the rotational entropy correction. 
 

Note: Rotational entropy computed according to Herzberg 
Infrared and Raman Spectra, Chapter V,1, Van Nostrand Reinhold, 1945 
Point Group:  C1, Symmetry Number:   1  
Rotational constants in cm-1:     0.050830     0.017199     0.016204 

Vibrational entropy computed according to the QRRHO of S. Grimme
Chem.Eur.J. 2012 18 9955 using a reference frequency of 100.0 cm-1


-------
ENTROPY
-------

The entropy contributions are T*S = T*(S(el)+S(vib)+S(rot)+S(trans))
     S(el)   - electronic entropy
     S(vib)  - vibrational entropy
     S(rot)  - rotational entropy
     S(trans)- translational entropy
The entropies will be listed as multiplied by the temperature to get
units of energy

Electronic entropy                ...      0.00000000 Eh      0.00 kcal/mol
Vibrational entropy               ...      0.01730473 Eh     10.86 kcal/mol
Rotational entropy                ...      0.01597232 Eh     10.02 kcal/mol
Translational entropy             ...      0.02148743 Eh     13.48 kcal/mol
-----------------------------------------------------------------------
Final entropy term                ...      0.05476448 Eh     34.37 kcal/mol

In case the symmetry of your molecule has not been determined correctly
or in case you have a reason to use a different symmetry number we print 
out the resulting rotational entropy values for sn=1,12:

 non-linear molecules -----------------------------------
|  sn= 1 | S(rot)=       0.01597232 Eh     10.02 kcal/mol|
|  sn= 2 | S(rot)=       0.01526990 Eh      9.58 kcal/mol|
|  sn= 3 | S(rot)=       0.01485901 Eh      9.32 kcal/mol|
|  sn= 4 | S(rot)=       0.01456748 Eh      9.14 kcal/mol|
|  sn= 5 | S(rot)=       0.01434135 Eh      9.00 kcal/mol|
|  sn= 6 | S(rot)=       0.01415659 Eh      8.88 kcal/mol|
|  sn= 7 | S(rot)=       0.01400038 Eh      8.79 kcal/mol|
|  sn= 8 | S(rot)=       0.01386506 Eh      8.70 kcal/mol|
|  sn= 9 | S(rot)=       0.01374570 Eh      8.63 kcal/mol|
|  sn=10 | S(rot)=       0.01363893 Eh      8.56 kcal/mol|
|  sn=11 | S(rot)=       0.01354235 Eh      8.50 kcal/mol|
|  sn=12 | S(rot)=       0.01345417 Eh      8.44 kcal/mol|
 linear molecules ---------------------------------------
|  Dinfh | S(rot)=       0.00996540 Eh      6.25 kcal/mol|
|  Cinfv | S(rot)=       0.01066782 Eh      6.69 kcal/mol|
 --------------------------------------------------------


-------------------
GIBBS FREE ENERGY
-------------------

The Gibbs free energy is G = H - T*S

Total enthalpy                    ...   -928.23847459 Eh 
Total entropy correction          ...     -0.05476448 Eh    -34.37 kcal/mol
-----------------------------------------------------------------------
Final Gibbs free energy         ...   -928.29323907 Eh

For completeness - the Gibbs free energy minus the electronic energy
G-E(el)                           ...      0.04144165 Eh     26.00 kcal/mol


The first frequency considered to be a vibration is 6
The total number of vibrations considered is 39


--------------------------
THERMOCHEMISTRY AT 340.00K
--------------------------

Temperature         ...   340.00 K
Pressure            ...     1.00 atm
Total Mass          ...   200.05 AMU
Quasi RRHO          ...     True
Cut-Off Frequency   ...     1.00 cm^-1

Throughout the following assumptions are being made:
  (1) The electronic state is orbitally nondegenerate
  (2) There are no thermally accessible electronically excited states
  (3) Hindered rotations indicated by low frequency modes are not
      treated as such but are treated as vibrations and this may
      cause some error
  (4) All equations used are the standard statistical mechanics
      equations for an ideal gas
  (5) All vibrations are strictly harmonic

freq.      25.89  E(vib)   ...       0.64 
freq.      34.75  E(vib)   ...       0.63 
freq.      79.31  E(vib)   ...       0.57 
freq.      88.77  E(vib)   ...       0.56 
freq.     148.17  E(vib)   ...       0.49 
freq.     188.81  E(vib)   ...       0.44 
freq.     216.82  E(vib)   ...       0.41 
freq.     294.25  E(vib)   ...       0.34 
freq.     321.70  E(vib)   ...       0.32 
freq.     356.35  E(vib)   ...       0.29 
freq.     361.03  E(vib)   ...       0.29 
freq.     435.20  E(vib)   ...       0.23 
freq.     511.16  E(vib)   ...       0.19 
freq.     529.63  E(vib)   ...       0.18 
freq.     541.34  E(vib)   ...       0.17 
freq.     573.88  E(vib)   ...       0.16 
freq.     604.18  E(vib)   ...       0.15 
freq.     660.73  E(vib)   ...       0.12 
freq.     704.27  E(vib)   ...       0.11 
freq.     843.14  E(vib)   ...       0.07 
freq.     871.34  E(vib)   ...       0.06 
freq.     970.56  E(vib)   ...       0.05 
freq.    1083.64  E(vib)   ...       0.03 
freq.    1092.47  E(vib)   ...       0.03 
freq.    1115.60  E(vib)   ...       0.03 
freq.    1132.71  E(vib)   ...       0.03 
freq.    1156.71  E(vib)   ...       0.02 
freq.    1182.70  E(vib)   ...       0.02 
freq.    1200.10  E(vib)   ...       0.02 
freq.    1263.63  E(vib)   ...       0.02 
freq.    1304.60  E(vib)   ...       0.01 
freq.    1323.07  E(vib)   ...       0.01 
freq.    1360.96  E(vib)   ...       0.01 
freq.    1407.02  E(vib)   ...       0.01 
freq.    1445.01  E(vib)   ...       0.01 
freq.    1495.14  E(vib)   ...       0.01 
freq.    3075.62  E(vib)   ...       0.00 
freq.    3101.07  E(vib)   ...       0.00 
freq.    3138.28  E(vib)   ...       0.00 

------------
INNER ENERGY
------------

The inner energy is: U= E(el) + E(ZPE) + E(vib) + E(rot) + E(trans)
    E(el)   - is the total energy from the electronic structure calculation
              = E(kin-el) + E(nuc-el) + E(el-el) + E(nuc-nuc)
    E(ZPE)  - the the zero temperature vibrational energy from the frequency calculation
    E(vib)  - the the finite temperature correction to E(ZPE) due to population
              of excited vibrational states
    E(rot)  - is the rotational thermal energy
    E(trans)- is the translational thermal energy

Summary of contributions to the inner energy U:
Electronic energy                ...   -928.33468072 Eh
Zero point energy                ...      0.08255988 Eh      51.81 kcal/mol
Thermal vibrational correction   ...      0.01072820 Eh       6.73 kcal/mol
Thermal rotational correction    ...      0.00161507 Eh       1.01 kcal/mol
Thermal translational correction ...      0.00161507 Eh       1.01 kcal/mol
-----------------------------------------------------------------------
Total thermal energy                   -928.23816251 Eh


Summary of corrections to the electronic energy:
(perhaps to be used in another calculation)
Total thermal correction                  0.01395833 Eh       8.76 kcal/mol
Non-thermal (ZPE) correction              0.08255988 Eh      51.81 kcal/mol
-----------------------------------------------------------------------
Total correction                          0.09651821 Eh      60.57 kcal/mol


--------
ENTHALPY
--------

The enthalpy is H = U + kB*T
                kB is Boltzmann's constant
Total thermal energy              ...   -928.23816251 Eh 
Thermal Enthalpy correction       ...      0.00107674 Eh       0.68 kcal/mol
-----------------------------------------------------------------------
Total Enthalpy                    ...   -928.23708577 Eh


Note: Only C1 symmetry has been detected, increase convergence thresholds 
      if your molecule has a higher symmetry. Symmetry factor of 1.0 is   
      used for the rotational entropy correction. 
 

Note: Rotational entropy computed according to Herzberg 
Infrared and Raman Spectra, Chapter V,1, Van Nostrand Reinhold, 1945 
Point Group:  C1, Symmetry Number:   1  
Rotational constants in cm-1:     0.050830     0.017199     0.016204 

Vibrational entropy computed according to the QRRHO of S. Grimme
Chem.Eur.J. 2012 18 9955 using a reference frequency of 100.0 cm-1


-------
ENTROPY
-------

The entropy contributions are T*S = T*(S(el)+S(vib)+S(rot)+S(trans))
     S(el)   - electronic entropy
     S(vib)  - vibrational entropy
     S(rot)  - rotational entropy
     S(trans)- translational entropy
The entropies will be listed as multiplied by the temperature to get
units of energy

Electronic entropy                ...      0.00000000 Eh      0.00 kcal/mol
Vibrational entropy               ...      0.01943976 Eh     12.20 kcal/mol
Rotational entropy                ...      0.01706850 Eh     10.71 kcal/mol
Translational entropy             ...      0.02299358 Eh     14.43 kcal/mol
-----------------------------------------------------------------------
Final entropy term                ...      0.05950184 Eh     37.34 kcal/mol

In case the symmetry of your molecule has not been determined correctly
or in case you have a reason to use a different symmetry number we print 
out the resulting rotational entropy values for sn=1,12:

 non-linear molecules -----------------------------------
|  sn= 1 | S(rot)=       0.01706850 Eh     10.71 kcal/mol|
|  sn= 2 | S(rot)=       0.01632218 Eh     10.24 kcal/mol|
|  sn= 3 | S(rot)=       0.01588561 Eh      9.97 kcal/mol|
|  sn= 4 | S(rot)=       0.01557586 Eh      9.77 kcal/mol|
|  sn= 5 | S(rot)=       0.01533560 Eh      9.62 kcal/mol|
|  sn= 6 | S(rot)=       0.01513929 Eh      9.50 kcal/mol|
|  sn= 7 | S(rot)=       0.01497331 Eh      9.40 kcal/mol|
|  sn= 8 | S(rot)=       0.01482954 Eh      9.31 kcal/mol|
|  sn= 9 | S(rot)=       0.01470272 Eh      9.23 kcal/mol|
|  sn=10 | S(rot)=       0.01458928 Eh      9.15 kcal/mol|
|  sn=11 | S(rot)=       0.01448666 Eh      9.09 kcal/mol|
|  sn=12 | S(rot)=       0.01439297 Eh      9.03 kcal/mol|
 linear molecules ---------------------------------------
|  Dinfh | S(rot)=       0.01065352 Eh      6.69 kcal/mol|
|  Cinfv | S(rot)=       0.01139984 Eh      7.15 kcal/mol|
 --------------------------------------------------------


-------------------
GIBBS FREE ENERGY
-------------------

The Gibbs free energy is G = H - T*S

Total enthalpy                    ...   -928.23708577 Eh 
Total entropy correction          ...     -0.05950184 Eh    -37.34 kcal/mol
-----------------------------------------------------------------------
Final Gibbs free energy         ...   -928.29658761 Eh

For completeness - the Gibbs free energy minus the electronic energy
G-E(el)                           ...      0.03809311 Eh     23.90 kcal/mol


Maximum memory used throughout the entire PROP-calculation: 175.2 MB

--------------------------------
SUGGESTED CITATIONS FOR THIS RUN
--------------------------------

Below you find a list of papers that are relevant to this ORCA run
We neither can nor want to force you to cite these papers, but we appreciate if you do
You receive ORCA, which is the product of decades of hard work by many enthusiastic individuals, for free
The only thing we kindly ask in return is that you cite our papers,
We deeply appreciate it, if you show your appreciation for ORCA by not just citing the generic ORCA reference.

Please note that relegating all ORCA citations to the supporting information does *not* help us.
SI sections are not indexed - citations you put there will not count into any citation statistics
But we need these citations in order to attract the funding resources that allow us to do what we are doing

Therefore, if you are a happy ORCA user, please consider citing a few of the papers listed below in the main body of your paper

In addition to the list printed below, the program has created the file HFE_347pcf2_gauche2.bibtex that contains the list in bibtex format
You can import this file easily into all common literature databanks and citation aid programs

It goes without saying that in many instances, there are alternative algorithms to achieve similar
results as the ones you have gotten from ORCA. It is, of course, also the case that in some instances
ORCA just re-implements algorithms worked out by others. We are fully aware of that and we are also
fully appreciative of our colleagues work. Hence this citation list should not be read as indicating
that the listed papers, which are focused on our own work, are the only ones worth citing. It simply
meant to make it easier for users to cite ORCA specific papers. It is not a substitute for doing your
own literature research and citing the relevant literature in a scientifically appropriate manner.

List of essential papers. We consider these as the minimum necessary citations

  1. Neese, F.
     Software update: the ORCA program system, version 6.0
     WIRES Comput. Molec. Sci. 2025 15(1), e70019
     doi.org/10.1002/wcms.70019

List of papers to cite with high priority. The work reported in these papers was absolutely
necessary for this run to complete.
Our perspective: the developers of density functionals and basis sets usually get cited in chemistry papers
Good! But without the algorithms to do something with them, the functionals or basis sets would not do anything.
Hence, in our opinion, the algorithm design and method developments papers are equally worthy of getting cited

  1. Neese, F.
     An improvement of the resolution of the identity approximation for the formation of the Coulomb matrix
     J. Comp. Chem. 2003 24(14), 1740-1747
     doi.org/10.1002/jcc.10318
  2. Neese, F.; Wennmohs, F.; Hansen, A.; Becker, U.
     Efficient, approximate and parallel Hartree-Fock and hybrid DFT calculations. A 'chain-of-spheres' algorithm for the Hartree-Fock exchange
     Chem. Phys. 2009 356(1-3), 98-109
     doi.org/10.1016/j.chemphys.2008.10.036
  3. Bykov, D.; Petrenko, T.; Izsak, R.; Kossmann, S.; Becker, U.; Valeev, E.; Neese, F.
     Efficient implementation of the analytic second derivatives of Hartree-Fock and hybrid DFT energies: a detailed analysis of different approximations
     Molec. Phys. 2015 113 , 1961-1977
     doi.org/10.1080/00268976.2015.1025114
  4. Helmich-Paris, B.; de Souza, B.; Neese, F.; Izsák, R.
     An improved chain of spheres for exchange algorithm
     J. Chem. Phys. 2021 155(10), 104109
     doi.org/10.1063/5.0058766
  5. Neese, F.
     The SHARK Integral Generation and Digestion System
     J. Comp. Chem. 2022 44(3), 381
     doi.org/10.1002/jcc.26942

List of suggested additional citations. These are papers that are important in the 'surrounding' of 
of this run, or papers that preceded the highly important papers. If you like your results we are grateful for a citation.

  1. Izsak, R.; Neese, F.
     An overlap fitted chain of spheres exchange method
     J. Chem. Phys. 2011 135 , 144105
     doi.org/10.1063/1.3646921
  2. Izsak, R.; Hansen, A.; Neese, F.
     The resolution of identity and chain of spheres approximations for the LPNO-CCSD singles Fock term
     Molec. Phys. 2012 110 , 2413-2417
     doi.org/10.1080/00268976.2012.687466
  3. Neese, F.
     The ORCA program system
     WIRES Comput. Molec. Sci. 2012 2(1), 73-78
     doi.org/10.1002/wcms.81
  4. Izsak, R.; Neese, F.; Klopper, W.
     Robust fitting techniques in the chain of spheres approximation to the Fock exchange: The role of the complementary space
     J. Chem. Phys. 2013 139 , 
     doi.org/10.1063/1.4819264
  5. Neese, F.
     Software update: the ORCA program system, version 4.0
     WIRES Comput. Molec. Sci. 2018 8(1), 1-6
     doi.org/10.1002/wcms.1327
  6. Neese, F.; Wennmohs, F.; Becker, U.; Riplinger, C.
     The ORCA quantum chemistry program package
     J. Chem. Phys. 2020 152(22), 224108
     doi.org/10.1063/5.0004608
  7. Neese, F.
     Software update: The ORCA program system—Version 5.0
     WIRES Comput. Molec. Sci. 2022 12(1), e1606
     doi.org/10.1002/wcms.1606

List of optional additional citations

  1. Neese, F.
     Approximate second-order SCF convergence for spin unrestricted wavefunctions
     Chem. Phys. Lett. 2000 325(1-3), 93-98
     doi.org/10.1016/s0009-2614(00)00662-x

Timings for individual modules:

Sum of individual times          ...    11736.887 sec (= 195.615 min)
Startup calculation              ...       52.513 sec (=   0.875 min)   0.4 %
SCF iterations                   ...     2786.826 sec (=  46.447 min)  23.7 %
Property integrals               ...     2290.901 sec (=  38.182 min)  19.5 %
SCF Response                     ...      627.553 sec (=  10.459 min)   5.3 %
Property calculations            ...     2199.547 sec (=  36.659 min)  18.7 %
SCF Gradient evaluation          ...     3779.343 sec (=  62.989 min)  32.2 %
Geometry relaxation              ...        0.204 sec (=   0.003 min)   0.0 %
                             ****ORCA TERMINATED NORMALLY****
TOTAL RUN TIME: 0 days 3 hours 15 minutes 40 seconds 679 msec
