
                                 *****************
                                 * O   R   C   A *
                                 *****************

                                            #,                                       
                                            ###                                      
                                            ####                                     
                                            #####                                    
                                            ######                                   
                                           ########,                                 
                                     ,,################,,,,,                         
                               ,,#################################,,                 
                          ,,##########################################,,             
                       ,#########################################, ''#####,          
                    ,#############################################,,   '####,        
                  ,##################################################,,,,####,       
                ,###########''''           ''''###############################       
              ,#####''   ,,,,##########,,,,          '''####'''          '####       
            ,##' ,,,,###########################,,,                        '##       
           ' ,,###''''                  '''############,,,                           
         ,,##''                                '''############,,,,        ,,,,,,###''
      ,#''                                            '''#######################'''  
     '                                                          ''''####''''         
             ,#######,   #######,   ,#######,      ##                                
            ,#'     '#,  ##    ##  ,#'     '#,    #''#        ,####,    ,#,          
            ##       ##  ##   ,#'  ##            #'  '#       #'       ,# #          
            ##       ##  #######   ##           ,######,      #####,      #          
            '#,     ,#'  ##    ##  '#,     ,#' ,#      #,     #,   #      #          
             '#######'   ##     ##  '#######'  #'      '#     '####' #    #          



                #########################################################
                #                        -***-                          #
                #          Department of theory and spectroscopy        #
                #                                                       #
                #                      Frank Neese                      #
                #                                                       #
                #     Directorship, Architecture, Infrastructure        #
                #                    SHARK, DRIVERS                     #
                #        Core code/Algorithms in most modules           #
                #                                                       #
                #        Max Planck Institute fuer Kohlenforschung      #
                #                Kaiser Wilhelm Platz 1                 #
                #                 D-45470 Muelheim/Ruhr                 #
                #                      Germany                          #
                #                                                       #
                #                  All rights reserved                  #
                #                        -***-                          #
                #########################################################


                         Program Version 6.1.1  -  RELEASE   -
                                (GIT: $487d211c$)
                          ($2025-11-21 10:33:24 +0100$)


 With contributions from (in alphabetic order):
[Max-Planck-Institut fuer Kohlenforschung]                               
  Daniel Aravena         : Magnetic Suceptibility                        
  Michael Atanasov       : Ab Initio Ligand Field Theory (pilot matlab implementation)
  Alexander A. Auer      : GIAO ZORA, VPT2 properties, NMR spectrum      
  Ute Becker             : All parallelization in ORCA, NUMFREQ, NUMCALC 
  Giovanni Bistoni       : ED, misc. LED, open-shell LED, HFLD           
  Dmytro Bykov           : pre 5.0 version of the SCF Hessian            
  Marcos Casanova-Páez   : Triplet and SCS-CIS(D). UHF-(DLPNO)-IP/EA/STEOM-CCSD. UHF-CVS-IP/STEOM-CCSD   
  Vijay G. Chilkuri      : MRCI spin determinant printing, contributions to CSF-ICE 
  Pauline Colinet        : FMM embedding                                 
  Dipayan Datta          : RHF DLPNO-CCSD density                        
  Achintya Kumar Dutta   : EOM-CC, STEOM-CC                              
  Nicolas Foglia         : Exact transition moments, OPA infrastructure, MCD improvements    
  Dmitry Ganyushin       : Spin-Orbit,Spin-Spin,Magnetic field MRCI      
  Miquel Garcia-Rates    : C-PCM and meta-GGA Hessian, CCSD/C-PCM, Gaussian charge scheme 
  Tiago L. C. Gouveia    : GS-ROHF, GS-ROCIS                             
  Yang Guo               : DLPNO-NEVPT2, F12-NEVPT2, CIM, IAO-localization        
  Andreas Hansen         : Spin unrestricted coupled pair/coupled cluster methods 
  Ingolf Harden          : AUTO-CI MPn and infrastructure                
  Benjamin Helmich-Paris : MC-RPA, TRAH-(SCF,CASSCF), AVAS, COSX integrals, SCF dyn. polar., MC-PDFT, srDFT 
  Lee Huntington         : MR-EOM, pCC                                   
  Robert Izsak           : Overlap fitted RIJCOSX, COSX-SCS-MP3, EOM     
  Riya Kayal             : Wick's Theorem for AUTO-CI, AUTO-CI UHF-CCSDT 
  Emily Kempfer          : AUTO-CI RHF CISDT and CCSDT, approximate NEVPT4
  Christian Kollmar      : KDIIS, OOCD, Brueckner-CCSD(T), CCSD density, CASPT2, CASPT2-K, improved NEVPT2 
  Axel Koslowski         : Symmetry handling                             
  Simone Kossmann        : meta-GGA functionals, TD-DFT gradient, OOMP2, (MP2 Hessian; deprecated post 5.0) 
  Lucas Lang             : DCDCAS, Hyperfine gauge corrections, ICE-SOC+SSC
  Marvin Lechner         : AUTO-CI (C++ implementation), FIC-MRCC        
  Spencer Leger          : CASSCF response                               
  Dagmar Lenk            : GEPOL surface, SMD, ORCA-2-JSON               
  Dimitrios Liakos       : Extrapolation schemes; Compound Job, Property file
  Dimitrios Manganas     : Further ROCIS development; embedding schemes. LFT, Crystal Embedding 
  Dimitrios Pantazis     : SARC Basis sets                               
  Anastasios Papadopoulos: AUTO-CI, single reference methods and gradients 
  Taras Petrenko         : pre 6.0 DFT Hessian and TD-DFT gradient,  ECA, NRVS 
  Petra Pikulova         : Analytic Raman intensities                    
  Peter Pinski           : DLPNO-MP2, DLPNO-MP2 Gradient                 
  Shashank Vittal Rao    : ES-AILFT, MagRelax                            
  Christoph Reimann      : Effective Core Potentials                     
  Marius Retegan         : Local ZFS, SOC                                
  Christoph Riplinger    : Optimizer, TS searches, QM/MM, DLPNO-CCSD(T), (RO)-DLPNO pert. Triples 
  Michael Roemelt        : Original ROCIS implementation, recursive CI coupling coefficients
  Masaaki Saitow         : Open-shell DLPNO-CCSD energy and density      
  Barbara Sandhoefer     : DKH picture change effects                    
  Yorick L. A. Schmerwitz: GMF and freeze-and-release deltaSCF, NEB S-IDPP initial path                    
  Kantharuban Sivalingam : CASSCF convergence/infrastructure, NEVPT2, NEVPT3, NEVPT4(SD), FIC-MRCI and CEPA variants
  Bernardo de Souza      : ESD, SOC TD-DFT                               
  Georgi L. Stoychev     : AutoAux, RI-MP2 NMR, DLPNO-MP2 response, X2C  
  Van Anh Tran           : RI-MP2 g-tensors                              
  Willem Van den Heuvel  : Paramagnetic NMR                              
  Zikuan Wang            : NOTCH, Electric field optimization            
  Frank Wennmohs         : Technical directorship and infrastructure     
  Hang Xu                : AUTO-CI-Response properties                   
                                                                         
[FACCTs GmbH]                                                            
  Markus Bursch, Nicolas Foglia, Miquel Garcia-Rates, Ingolf Harden, Hagen Neugebauer, Anastasios Papadopoulos, 
  Christoph Riplinger, Bernardo de Souza, Georgi L. Stoychev                                                    
                                                                 
  APM, various basis sets, CI-OPT, improved COSX, DLPNO-Multilevel,           
  DOCKER, DRACO, updates on ESD, Fragmentator, GOAT, IRC, LR-CPCM, L-BFGS, MBIS, meta-GGA TD-DFT gradient, ML-optimized integration grids, 
  MM, NACMEs, nearIR, NEB, NEB-TS, NL-DFT gradient (VV10), 2- and 3-layer-ONIOM, interface openCOSMO-RS, QMMM,   
  Crystal-QMMM, RESP, rigid body optimization, SF, symmetry and pop. for TD-DFT, various functionals, SOLVATOR                                   
                                                                         
[Other institutions]                                                     
  V. Asgeirsson          : NEB                                           
  Christoph Bannwarth    : sTDA-DFT, sTD-DFT, PBEh-3c, B97-3c, D3        
  Giovanni Bistoni       : ETS/NOCV, ADLD/ADEX, COVALED                  
  Martin Brehm           : Molecular dynamics                            
  Ronald Cardenas        : ETS/NOCV                                      
  Martina Colucci        : COVALED                                       
  Sebastian Ehlert       : rSCAN, r2SCAN, r2SCAN-3c, D4, dhf basis sets  
  Marvin Friede          : D4 for Fr, Ra, Ac-Lr                          
  Lars Goerigk           : TD-DFT with DH, B97 family of functionals     
  Stefan Grimme          : VdW corrections, initial TS optimization, DFT functionals, gCP, sTDA/sTD-DF 
  Waldemar Hujo          : DFT-NL                                        
  H. Jonsson             : NEB                                           
  Holger Kruse           : gCP                                           
  Marcel Mueller         : wB97X-3c, vDZP basis set                      
  Hagen Neugebauer       : wr2SCAN, Native XTB                           
  Gianluca Regni         : ADLD/ADEX                                     
  Tobias Risthaus        : pre 6.0 range-separated hybrid DFT and stability analysis
  Lukas Wittmann         : regularized MP2, r2SCAN double-hybrids, wr2SCAN        
                                                                         
We gratefully acknowledge several colleagues who have allowed us to      
interface, adapt or use parts of their codes:                            
  Ed Valeev, F. Pavosevic, A. Kumar             : LibInt (2-el integral package), F12 methods 
  Garnet Chan, S. Sharma, J. Yang, R. Olivares  : DMRG                   
  Ulf Ekstrom                                   : XCFun DFT Library      
  Mihaly Kallay                                 : mrcc  (arbitrary order and MRCC methods)
  Frank Weinhold                                : gennbo (NPA and NBO analysis)           
  Simon Mueller                                 : openCOSMO-RS                            
  Christopher J. Cramer and Donald G. Truhlar   : smd solvation model                     
  S Lehtola, MJT Oliveira, MAL Marques          : LibXC Library                           
  Liviu Ungur et al                             : ANISO software                          


 Your calculation uses the libint2 library for the computation of 2-el integrals
 For citations please refer to: http://libint.valeyev.net

 Your ORCA version has been built with support for libXC version: 7.0.0
 For citations please refer to: https://libxc.gitlab.io

 This ORCA versions uses:
   CBLAS   interface :  Fast vector & matrix operations
   LAPACKE interface :  Fast linear algebra routines
   SCALAPACK package :  Parallel linear algebra routines
   Shared memory     :  Shared parallel matrices
   BLAS/LAPACK       :  OpenBLAS 0.3.29  USE64BITINT DYNAMIC_ARCH NO_AFFINITY Cooperlake SINGLE_THREADED
        Core in use  :  Cooperlake
   Copyright (c) 2011-2014, The OpenBLAS Project


  ***********************************
  * Starting time: Mon Feb 16 21:04:05 2026
  * Host name:     Breado
  * Process ID:    2133
  * Working dir.:  /home/bread/other_data/B3LYP_6-31Gd
  ***********************************

Warning: RI is on but no J-basis has been assigned. Assigning Def2/J (nothing to worry about!)
================================================================================

----- Orbital basis set information -----
Your calculation utilizes the basis: 6-31G(d)
   H-He, Li-Ne : W. J. Hehre, R. Ditchfield and J.A. Pople, J. Chem. Phys. 56, 2257 (1972).
                 Note: He and Ne are unpublished basis sets taken from the Gaussian program.
                 Note: Li and B from J. D. Dill and J. A. Pople, J. Chem. Phys. 62, 2921 (1975).
   Na - Ar     : M. M. Francl, W. J. Pietro, W. J. Hehre, J. S. Binkley, M. S. Gordon, 
                 D. J. DeFrees and J. A. Pople, J. Chem. Phys. 77, 3654 (1982).
   K - Zn      : V. A. Rassolov, J. A. Pople, M. A. Ratner, and T. L. Windus, J. Chem. Phys. 109, 1223 (1998).

----- AuxJ basis set information -----
Your calculation utilizes the auxiliary basis: def2/J
   H-Rn: F. Weigend, Phys. Chem. Chem. Phys. 8, 1057 (2006).
   Fr-Lr: K. Eichkorn, F. Weigend, O. Treutler, R. Ahlrichs; Theor. Chem. Acc. 97, 119 (1997).

================================================================================
                                        WARNINGS
                       Please study these warnings very carefully!
================================================================================


WARNING: Geometry Optimization
  ===> : Switching off AutoStart
         For restart on a previous wavefunction, please use MOREAD

================================================================================
                                       INPUT FILE
================================================================================
NAME = HFE_347pcf2_gauche2.inp
|  1> # avogadro generated ORCA input file 
|  2> # Basic Mode
|  3> # 
|  4> ! B3LYP 6-31G(d) OPT FREQ 
|  5> % FREQ TEMP 305, 320, 340 END
|  6> 
|  7> * xyz 0 1
|  8>    F        1.57550       -1.24070        1.22680
|  9>    F        2.24660       -1.31560       -0.85780
| 10>    F        1.24280        1.48160        1.02660
| 11>    F        1.89540        1.41730       -1.04930
| 12>    F       -2.21040        0.58860       -1.24560
| 13>    F       -2.97990        0.67620        0.79360
| 14>    F       -2.55970       -1.25630       -0.13610
| 15>    O        0.13720       -0.61470       -0.40400
| 16>    C        1.49250       -0.61950        0.02550
| 17>    C       -0.71760        0.07520        0.49690
| 18>    C        2.00800        0.78950        0.14680
| 19>    C       -2.13040        0.01840       -0.02340
| 20>    H       -0.53430        1.14710        0.50530
| 21>    H       -0.65750       -0.34600        1.50500
| 22>    H        3.05020        0.82730        0.47350
| 23> *
| 24> 
| 25> 
| 26>                          ****END OF INPUT****
================================================================================

                       *****************************
                       * Geometry Optimization Run *
                       *****************************

Geometry optimization settings:
Update method            Update   .... BFGS
Choice of coordinates    CoordSys .... (2022) Redundant Internals
Initial Hessian          InHess   .... Almloef's Model
Max. no of cycles        MaxIter  .... 50

Convergence Tolerances:
Energy Change            TolE     ....  5.0000e-06 Eh
Max. Gradient            TolMAXG  ....  3.0000e-04 Eh/bohr
RMS Gradient             TolRMSG  ....  1.0000e-04 Eh/bohr
Max. Displacement        TolMAXD  ....  4.0000e-03 bohr
RMS Displacement         TolRMSD  ....  2.0000e-03 bohr
Strict Convergence                .... False

------------------------------------------------------------------------------
                        ORCA OPTIMIZATION COORDINATE SETUP
------------------------------------------------------------------------------

The optimization will be done in redundant internal coordinates (2022)
Making redundant internal coordinates   ...  (2022 redundants) done
Evaluating the initial hessian          ...  (Almloef) done
Evaluating the coordinates              ...  done
Calculating the B-matrix                .... done
Calculating the G-matrix                .... done
The number of degrees of freedom        ....   57

    -----------------------------------------------------------------
                    Redundant Internal Coordinates


    -----------------------------------------------------------------
         Definition                    Initial Value    Approx d2E/dq
    -----------------------------------------------------------------
      1. B(C   8,F   1)                  1.3540         0.593374   
      2. B(C   8,O   7)                  1.4217         0.498017   
      3. B(C   8,F   0)                  1.3550         0.591399   
      4. B(C   9,O   7)                  1.4207         0.499994   
      5. B(C  10,F   3)                  1.3555         0.590144   
      6. B(C  10,C   8)                  1.5052         0.409154   
      7. B(C  10,F   2)                  1.3559         0.589254   
      8. B(C  11,F   6)                  1.3498         0.602785   
      9. B(C  11,F   5)                  1.3498         0.602801   
     10. B(C  11,C   9)                  1.5066         0.407060   
     11. B(C  11,F   4)                  1.3510         0.599970   
     12. B(H  12,C   9)                  1.0875         0.363433   
     13. B(H  13,C   9)                  1.0942         0.354579   
     14. B(H  14,C  10)                  1.0929         0.356337   
     15. A(C   8,O   7,C   9)          112.5596         0.396641   
     16. A(F   1,C   8,C  10)          110.0634         0.395699   
     17. A(F   1,C   8,O   7)          109.6069         0.407012   
     18. A(O   7,C   8,C  10)          110.3438         0.385431   
     19. A(F   0,C   8,C  10)          109.6777         0.395467   
     20. A(F   0,C   8,F   1)          107.9723         0.417779   
     21. A(F   0,C   8,O   7)          109.1341         0.406772   
     22. A(H  12,C   9,H  13)          111.2872         0.290555   
     23. A(C  11,C   9,H  13)          110.8030         0.328098   
     24. A(O   7,C   9,H  13)          111.3620         0.337428   
     25. A(C  11,C   9,H  12)          101.4132         0.329436   
     26. A(O   7,C   9,H  12)          112.4662         0.338819   
     27. A(O   7,C   9,C  11)          109.0818         0.385352   
     28. A(F   3,C  10,H  14)          109.0854         0.345773   
     29. A(F   2,C  10,H  14)          109.0595         0.345685   
     30. A(F   2,C  10,F   3)          106.8137         0.417103   
     31. A(F   3,C  10,C   8)          109.5101         0.395320   
     32. A(C   8,C  10,H  14)          112.5235         0.328644   
     33. A(F   2,C  10,C   8)          109.6825         0.395215   
     34. A(F   4,C  11,C   9)          110.6111         0.396110   
     35. A(F   5,C  11,F   6)          108.0959         0.420381   
     36. A(F   4,C  11,F   6)          107.7105         0.420028   
     37. A(F   4,C  11,F   5)          107.7354         0.420030   
     38. A(F   6,C  11,C   9)          111.2652         0.396436   
     39. A(F   5,C  11,C   9)          111.2705         0.396438   
     40. D(F   1,C   8,O   7,C   9)    178.6391         0.019603   
     41. D(F   0,C   8,O   7,C   9)     60.5858         0.019603   
     42. D(C  10,C   8,O   7,C   9)    -59.9962         0.019603   
     43. D(H  13,C   9,O   7,C   8)    -56.7360         0.019764   
     44. D(H  12,C   9,O   7,C   8)     68.9670         0.019764   
     45. D(C  11,C   9,O   7,C   8)   -179.3401         0.019764   
     46. D(F   2,C  10,C   8,F   0)    -61.7161         0.013263   
     47. D(F   3,C  10,C   8,O   7)    -58.3750         0.013263   
     48. D(F   3,C  10,C   8,F   1)     62.7180         0.013263   
     49. D(F   3,C  10,C   8,F   0)   -178.6309         0.013263   
     50. D(F   2,C  10,C   8,O   7)     58.5397         0.013263   
     51. D(F   2,C  10,C   8,F   1)    179.6328         0.013263   
     52. D(F   4,C  11,C   9,H  13)    177.5026         0.013131   
     53. D(F   4,C  11,C   9,H  12)     59.2803         0.013131   
     54. D(F   4,C  11,C   9,O   7)    -59.5585         0.013131   
     55. D(F   5,C  11,C   9,H  13)     57.7896         0.013131   
     56. D(F   5,C  11,C   9,H  12)    -60.4327         0.013131   
     57. D(F   5,C  11,C   9,O   7)   -179.2715         0.013131   
    -----------------------------------------------------------------

Number of atoms                         .... 15
Number of degrees of freedom            .... 57


         *************************************************************
         *                GEOMETRY OPTIMIZATION CYCLE   1            *
         *************************************************************
---------------------------------
CARTESIAN COORDINATES (ANGSTROEM)
---------------------------------
  F      1.575500   -1.240700    1.226800
  F      2.246600   -1.315600   -0.857800
  F      1.242800    1.481600    1.026600
  F      1.895400    1.417300   -1.049300
  F     -2.210400    0.588600   -1.245600
  F     -2.979900    0.676200    0.793600
  F     -2.559700   -1.256300   -0.136100
  O      0.137200   -0.614700   -0.404000
  C      1.492500   -0.619500    0.025500
  C     -0.717600    0.075200    0.496900
  C      2.008000    0.789500    0.146800
  C     -2.130400    0.018400   -0.023400
  H     -0.534300    1.147100    0.505300
  H     -0.657500   -0.346000    1.505000
  H      3.050200    0.827300    0.473500

----------------------------
CARTESIAN COORDINATES (A.U.)
----------------------------
  NO LB      ZA    FRAG     MASS         X           Y           Z
   0 F     9.0000    0    18.998    2.977264   -2.344583    2.318316
   1 F     9.0000    0    18.998    4.245459   -2.486124   -1.621007
   2 F     9.0000    0    18.998    2.348552    2.799818    1.939993
   3 F     9.0000    0    18.998    3.581787    2.678309   -1.982890
   4 F     9.0000    0    18.998   -4.177051    1.112293   -2.353843
   5 F     9.0000    0    18.998   -5.631195    1.277833    1.499687
   6 F     9.0000    0    18.998   -4.837132   -2.374063   -0.257192
   7 O     8.0000    0    15.999    0.259270   -1.161615   -0.763449
   8 C     6.0000    0    12.011    2.820416   -1.170685    0.048188
   9 C     6.0000    0    12.011   -1.356067    0.142107    0.939005
  10 C     6.0000    0    12.011    3.794570    1.491939    0.277412
  11 C     6.0000    0    12.011   -4.025873    0.034771   -0.044220
  12 H     1.0000    0     1.008   -1.009681    2.167705    0.954879
  13 H     1.0000    0     1.008   -1.242495   -0.653845    2.844038
  14 H     1.0000    0     1.008    5.764043    1.563370    0.894785

--------------------------------
INTERNAL COORDINATES (ANGSTROEM)
--------------------------------
 F      0   0   0     0.000000000000     0.00000000     0.00000000
 F      1   0   0     2.191242200214     0.00000000     0.00000000
 F      1   2   0     2.749852108751    90.09355006     0.00000000
 F      3   1   2     2.177012186461    90.22425874     0.35296628
 F      4   3   1     4.193193415525    75.93372403    85.69446382
 F      5   4   3     2.181316265469   107.08054245     1.33679615
 F      5   4   3     2.180976100282   107.46846186   298.05368267
 O      1   2   3     2.262761925170    61.21614647    62.54808888
 C      2   1   3     1.354046125507    36.02780568   333.74686837
 C      8   1   2     1.420656841042    93.42681437   197.81184094
 C      4   3   1     1.355531928801    36.59961993   332.66665868
 C      6   5   4     1.349755566760    36.15212786   296.82148733
 H     10   8   1     1.087492096523   112.46622839    98.54972767
 H     10   8   1     1.094206132317   111.36200472   332.84681044
 H     11   4   3     1.092859812602   109.08543249   242.25564236

---------------------------
INTERNAL COORDINATES (A.U.)
---------------------------
 F      0   0   0     0.000000000000     0.00000000     0.00000000
 F      1   0   0     4.140847651496     0.00000000     0.00000000
 F      1   2   0     5.196467394324    90.09355006     0.00000000
 F      3   1   2     4.113956822621    90.22425874     0.35296628
 F      4   3   1     7.923987181904    75.93372403    85.69446382
 F      5   4   3     4.122090353204   107.08054245     1.33679615
 F      5   4   3     4.121447534160   107.46846186   298.05368267
 O      1   2   3     4.276000344836    61.21614647    62.54808888
 C      2   1   3     2.558776349905    36.02780568   333.74686837
 C      8   1   2     2.684652359851    93.42681437   197.81184094
 C      4   3   1     2.561584111221    36.59961993   332.66665868
 C      6   5   4     2.550668368912    36.15212786   296.82148733
 H     10   8   1     2.055062235232   112.46622839    98.54972767
 H     10   8   1     2.067749924136   111.36200472   332.84681044
 H     11   4   3     2.065205748586   109.08543249   242.25564236

---------------------
BASIS SET INFORMATION
---------------------
There are 4 groups of distinct atoms

 Group   1 Type F   : 10s4p1d contracted to 3s2p1d pattern {631/31/1}
 Group   2 Type O   : 10s4p1d contracted to 3s2p1d pattern {631/31/1}
 Group   3 Type C   : 10s4p1d contracted to 3s2p1d pattern {631/31/1}
 Group   4 Type H   : 4s contracted to 2s pattern {31}

Atom   0F    basis set group =>   1
Atom   1F    basis set group =>   1
Atom   2F    basis set group =>   1
Atom   3F    basis set group =>   1
Atom   4F    basis set group =>   1
Atom   5F    basis set group =>   1
Atom   6F    basis set group =>   1
Atom   7O    basis set group =>   2
Atom   8C    basis set group =>   3
Atom   9C    basis set group =>   3
Atom  10C    basis set group =>   3
Atom  11C    basis set group =>   3
Atom  12H    basis set group =>   4
Atom  13H    basis set group =>   4
Atom  14H    basis set group =>   4
---------------------------------
AUXILIARY/J BASIS SET INFORMATION
---------------------------------
There are 4 groups of distinct atoms

 Group   1 Type F   : 12s5p4d2f1g contracted to 6s4p3d1f1g pattern {711111/2111/211/2/1}
 Group   2 Type O   : 12s5p4d2f1g contracted to 6s4p3d1f1g pattern {711111/2111/211/2/1}
 Group   3 Type C   : 12s5p4d2f1g contracted to 6s4p3d1f1g pattern {711111/2111/211/2/1}
 Group   4 Type H   : 5s2p1d contracted to 3s1p1d pattern {311/2/1}

Atom   0F    basis set group =>   1
Atom   1F    basis set group =>   1
Atom   2F    basis set group =>   1
Atom   3F    basis set group =>   1
Atom   4F    basis set group =>   1
Atom   5F    basis set group =>   1
Atom   6F    basis set group =>   1
Atom   7O    basis set group =>   2
Atom   8C    basis set group =>   3
Atom   9C    basis set group =>   3
Atom  10C    basis set group =>   3
Atom  11C    basis set group =>   3
Atom  12H    basis set group =>   4
Atom  13H    basis set group =>   4
Atom  14H    basis set group =>   4
------------------------------------------------------------------------------
                             ORCA STARTUP CALCULATIONS
                           -- RI-GTO INTEGRALS CHOSEN --
------------------------------------------------------------------------------
------------------------------------------------------------------------------
                   ___                                                        
                  /   \      - P O W E R E D   B Y -                         
                 /     \                                                     
                 |  |  |   _    _      __       _____    __    __             
                 |  |  |  | |  | |    /  \     |  _  \  |  |  /  |          
                  \  \/   | |  | |   /    \    | | | |  |  | /  /          
                 / \  \   | |__| |  /  /\  \   | |_| |  |  |/  /          
                |  |  |   |  __  | /  /__\  \  |    /   |      \           
                |  |  |   | |  | | |   __   |  |    \   |  |\   \          
                \     /   | |  | | |  |  |  |  | |\  \  |  | \   \       
                 \___/    |_|  |_| |__|  |__|  |_| \__\ |__|  \__/        
                                                                              
                      - O R C A' S   B I G   F R I E N D -                    
                                      &                                       
                       - I N T E G R A L  F E E D E R -                       
                                                                              
 v1 FN, 2020, v2 2021, v3 2022-2024                                           
------------------------------------------------------------------------------


----------------------
SHARK INTEGRAL PACKAGE
----------------------

Number of atoms                             ...     15
Number of basis functions                   ...    174
Number of shells                            ...     78
Maximum angular momentum                    ...      2
Integral batch strategy                     ... SHARK/LIBINT Hybrid
RI-J (if used) integral strategy            ... SPLIT-RIJ (Revised 2003 algorithm where possible)
Printlevel                                  ...      1
Contraction scheme used                     ... SEGMENTED contraction
Prescreening option                         ... SCHWARTZ
   Thresh                                   ... 2.500e-11
   Tcut                                     ... 2.500e-12
   Tpresel                                  ... 2.500e-12 
Coulomb Range Separation                    ... NOT USED
Exchange Range Separation                   ... NOT USED
Multipole approximations                    ... NOT USED
Finite Nucleus Model                        ... NOT USED
CABS basis                                  ... NOT available
Auxiliary Coulomb fitting basis             ... AVAILABLE
   # of basis functions in Aux-J            ...    621
   # of shells in Aux-J                     ...    195
   Maximum angular momentum in Aux-J        ...      4
Auxiliary J/K fitting basis                 ... NOT available
Auxiliary Correlation fitting basis         ... NOT available
Auxiliary 'external' fitting basis          ... NOT available

Checking pre-screening integrals            ... done (  0.0 sec) Dimension = 78
   => SHARK Basis and OBASIS are compatible. Storing Pre-screening
Shell pair information
Shell pair cut-off parameter TPreSel        ...   2.5e-12
Total number of shell pairs                 ...      3081
Shell pairs after pre-screening             ...      2630
Total number of primitive shell pairs       ...     18789
Primitive shell pairs kept                  ...      9608
          la=0 lb=0:    728 shell pairs
          la=1 lb=0:    879 shell pairs
          la=1 lb=1:    282 shell pairs
          la=2 lb=0:    412 shell pairs
          la=2 lb=1:    260 shell pairs
          la=2 lb=2:     69 shell pairs

Checking whether 4 symmetric matrices of dimension 174 fit in memory
:Max Core in MB      =   4096.00
 MB in use           =      7.18
 MB left             =   4088.82
 MB needed           =      0.46
 Data fit in memory  = YES
Calculating RI/J V-Matrix + Cholesky decomp.... done (  0.1 sec)
Calculating Nuclear repulsion               ... done (  0.0 sec) ENN=    863.221943248253 Eh

Diagonalization of the overlap matrix:
Smallest eigenvalue                        ... 2.875e-03
Time for diagonalization                   ...    0.010 sec
Threshold for overlap eigenvalues          ... 1.000e-07
Number of eigenvalues below threshold      ... 0
Time for construction of square roots      ...    0.003 sec
Total time needed                          ...    0.014 sec

-------------------
DFT GRID GENERATION
-------------------

General Integration Accuracy     IntAcc      ... 4.388
Radial Grid Type                 RadialGrid  ... OptM3 with GC (2021)
Angular Grid (max. ang.)         AngularGrid ... 4 (Lebedev-302)
Angular grid pruning method      GridPruning ... 4 (adaptive)
Weight generation scheme         WeightScheme... mBecke (2022)
Basis function cutoff            BFCut       ... 1.0000e-11
Integration weight cutoff        WCut        ... 1.0000e-14
Partially contracted basis set               ... off
Rotationally invariant grid construction     ... off
Angular grids for H and He will be reduced by one unit

Total number of grid points                  ...    82475
Total number of batches                      ...     1298
Average number of points per batch           ...       63
Average number of grid points per atom       ...     5498

--------------------
COSX GRID GENERATION
--------------------

GRIDX 1
-------
General Integration Accuracy     IntAcc      ... 3.816
Radial Grid Type                 RadialGrid  ... OptM3 with GC (2021)
Angular Grid (max. ang.)         AngularGrid ... 1 (Lebedev-50)
Angular grid pruning method      GridPruning ... 4 (adaptive)
Weight generation scheme         WeightScheme... mBecke (2022)
Basis function cutoff            BFCut       ... 1.0000e-11
Integration weight cutoff        WCut        ... 1.0000e-14
Partially contracted basis set               ... on
Rotationally invariant grid construction     ... off
Angular grids for H and He will be reduced by one unit

Total number of grid points                  ...    10421
Total number of batches                      ...       90
Average number of points per batch           ...      115
Average number of grid points per atom       ...      695
UseSFitting                                  ... on

GRIDX 2
-------
General Integration Accuracy     IntAcc      ... 4.020
Radial Grid Type                 RadialGrid  ... OptM3 with GC (2021)
Angular Grid (max. ang.)         AngularGrid ... 2 (Lebedev-110)
Angular grid pruning method      GridPruning ... 4 (adaptive)
Weight generation scheme         WeightScheme... mBecke (2022)
Basis function cutoff            BFCut       ... 1.0000e-11
Integration weight cutoff        WCut        ... 1.0000e-14
Partially contracted basis set               ... on
Rotationally invariant grid construction     ... off
Angular grids for H and He will be reduced by one unit

Total number of grid points                  ...    24152
Total number of batches                      ...      198
Average number of points per batch           ...      121
Average number of grid points per atom       ...     1610
UseSFitting                                  ... on

GRIDX 3
-------
General Integration Accuracy     IntAcc      ... 4.338
Radial Grid Type                 RadialGrid  ... OptM3 with GC (2021)
Angular Grid (max. ang.)         AngularGrid ... 3 (Lebedev-194)
Angular grid pruning method      GridPruning ... 4 (adaptive)
Weight generation scheme         WeightScheme... mBecke (2022)
Basis function cutoff            BFCut       ... 1.0000e-11
Integration weight cutoff        WCut        ... 1.0000e-14
Partially contracted basis set               ... on
Rotationally invariant grid construction     ... off
Angular grids for H and He will be reduced by one unit

Total number of grid points                  ...    53395
Total number of batches                      ...      424
Average number of points per batch           ...      125
Average number of grid points per atom       ...     3560
UseSFitting                                  ... on
Grids setup in   1.9 sec
Initializing property integral containers    ... done (  0.0 sec)

SHARK setup successfully completed in   2.3 seconds

Maximum memory used throughout the entire STARTUP-calculation: 34.0 MB
-------------------------------------------------------------------------------
                                 ORCA GUESS
                   Start orbitals & Density for SCF / CASSCF
-------------------------------------------------------------------------------

------------
SCF SETTINGS
------------
Hamiltonian:
 Density Functional     Method          .... DFT(GTOs)
 Exchange Functional    Exchange        .... B88
   X-Alpha parameter    XAlpha          ....  0.666667
   Becke's b parameter  XBeta           ....  0.004200
 Correlation Functional Correlation     .... LYP
 LDA part of GGA corr.  LDAOpt          .... VWN-5
 Gradients option       PostSCFGGA      .... off
 Hybrid DFT is turned on
   Fraction HF Exchange ScalHFX         ....  0.200000
   Scaling of DF-GGA-X  ScalDFX         ....  0.720000
   Scaling of DF-GGA-C  ScalDFC         ....  0.810000
   Scaling of DF-LDA-C  ScalLDAC        ....  1.000000
   Perturbative correction              ....  0.000000
   NL short-range parameter             ....  4.800000
 RI-approximation to the Coulomb term is turned on
   Number of AuxJ basis functions       .... 621
   RIJ-COSX (HFX calculated with COS-X)).... on


General Settings:
 Integral files         IntName         .... HFE_347pcf2_gauche2
 Hartree-Fock type      HFTyp           .... RHF
 Total Charge           Charge          ....    0
 Multiplicity           Mult            ....    1
 Number of Electrons    NEL             ....   98
 Basis Dimension        Dim             ....  174
 Nuclear Repulsion      ENuc            ....    863.2219432483 Eh

Convergence Acceleration:
 AO-DIIS                CNVDIIS         .... on
   Start iteration      DIISMaxIt       ....    12
   Startup error        DIISStart       ....  0.200000
   # of expansion vecs  DIISMaxEq       ....     5
   Bias factor          DIISBfac        ....   1.050
   Max. coefficient     DIISMaxC        ....  10.000
 MO-DIIS                CNVKDIIS        .... off
 Trust-Rad. Augm. Hess. CNVTRAH         .... auto
   Auto Start mean grad. ratio tolernc. ....  1.125000
   Auto Start start iteration           ....    50
   Auto Start num. interpolation iter.  ....    10
   Max. Number of Micro iterations      ....    24
   Max. Number of Macro iterations      .... Maxiter - #DIIS iter
   Number of Davidson start vectors     ....     2
   Converg. threshold    (grad. norm)   ....   1.000e-05
   Grad. Scal. Fac. for Micro threshold ....   0.100
   Minimum threshold for Micro iter.    ....   1.000e-02
   NR start threshold (gradient norm)   ....   1.000e-04
   Initial trust radius                 ....   0.400
   Minimum AH scaling param. (alpha)    ....   1.000
   Maximum AH scaling param. (alpha)    .... 1000.000
   Quad. conv. algorithm                .... NR
   White noise on init. David. guess    .... on
   Maximum white noise                  ....   0.010
   Pseudo random numbers                .... off
   Inactive MOs                         .... canonical
   Orbital update algorithm             .... Taylor
   Preconditioner                       .... Diag
   Full preconditioner red. dimension   ....   250
 SOSCF                 CNVSOSCF           .... on
   Start iteration     SOSCFMaxIt         ....   150
   Startup grad/error  SOSCFStart         ....  0.003300
   Hessian update      SOSCFHessUp        .... L-BFGS
   Autom. constraints  SOSCFAutoConstrain .... off
 Level Shifting         CNVShift        .... on
   Level shift para.    LevelShift      ....    0.2500
   Turn off err/grad.   ShiftErr        ....    0.0010
 Zerner damping         CNVZerner       .... off
 Static damping         CNVDamp         .... on
   Fraction old density DampFac         ....    0.7000
   Max. Damping (<1)    DampMax         ....    0.9800
   Min. Damping (>=0)   DampMin         ....    0.0000
   Turn off err/grad.   DampErr         ....    0.1000

SCF Procedure:
 Maximum # iterations   MaxIter         ....   125
 SCF integral mode      SCFMode         .... Direct
   Integral package                     .... SHARK and LIBINT hybrid scheme
 Reset frequency        DirectResetFreq ....    20
 Integral Threshold     Thresh          ....  2.500e-11 Eh
 Primitive CutOff       TCut            ....  2.500e-12 Eh

Convergence Tolerance:
 Convergence Check Mode ConvCheckMode   .... Total+1el-Energy
 Convergence forced     ConvForced      .... 0
 Energy Change          TolE            ....  1.000e-08 Eh
 1-El. energy change                    ....  1.000e-05 Eh
 Orbital Gradient       TolG            ....  1.000e-05
 Orbital Rotation angle TolX            ....  1.000e-05
 DIIS Error             TolErr          ....  5.000e-07

------------------------------
INITIAL GUESS: MODEL POTENTIAL
------------------------------
Loading Hartree-Fock densities                     ... done
Calculating cut-offs                               ... done
Initializing the effective Hamiltonian             ... done
Setting up the integral package (SHARK)            ... done
Starting the Coulomb interaction                   ... done (   0.2 sec)
Making the grid                                    ... done (   0.3 sec)
Mapping shells                                     ... done
Starting the XC term evaluation                    ... done (   0.2 sec)
  promolecular density results
     # of electrons  =     97.998127568
     EX              =   -100.082209182
     EC              =     -3.647625724
     EX+EC           =   -103.729834906
Transforming the Hamiltonian                       ... done (   0.0 sec)
Diagonalizing the Hamiltonian                      ... done (   0.0 sec)
Back transforming the eigenvectors                 ... done (   0.0 sec)
Now organizing SCF variables                       ... done
                      ------------------
                      INITIAL GUESS DONE (   0.7 sec)
                      ------------------
             **** ENERGY FILE WAS UPDATED (HFE_347pcf2_gauche2.en.tmp) ****
Finished Guess after   0.8 sec
Maximum memory used throughout the entire GUESS-calculation: 12.4 MB

-------------------------------------------------------------------------------------------
                                      ORCA LEAN-SCF
                              memory conserving SCF solver
-------------------------------------------------------------------------------------------

----------------------------------------D-I-I-S--------------------------------------------
Iteration    Energy (Eh)           Delta-E    RMSDP     MaxDP     DIISErr   Damp  Time(sec)
-------------------------------------------------------------------------------------------
               ***  Starting incremental Fock matrix formation  ***
    1    -927.7198801532053949     0.00e+00  2.62e-03  6.30e-02  2.05e-01  0.700   6.2
    2    -927.8220879898401563    -1.02e-01  1.44e-03  3.47e-02  8.15e-02  0.700   0.5
                               ***Turning on AO-DIIS***
    3    -927.8568220678876060    -3.47e-02  4.24e-04  1.03e-02  2.25e-02  0.700   2.9
    4    -927.8798136341051759    -2.30e-02  7.21e-04  1.22e-02  1.13e-02  0.000   2.7
                              *** Initializing SOSCF ***
---------------------------------------S-O-S-C-F--------------------------------------
Iteration    Energy (Eh)           Delta-E    RMSDP     MaxDP     MaxGrad    Time(sec)
--------------------------------------------------------------------------------------
    5    -927.9324600005488719    -5.26e-02  1.43e-04  3.07e-03  2.91e-03     2.7
               *** Restarting incremental Fock matrix formation ***
    6    -927.9325456625931565    -8.57e-05  5.92e-05  1.10e-03  2.74e-04     6.0
    7    -927.9325460235900209    -3.61e-07  2.63e-05  5.07e-04  3.19e-04     4.3
    8    -927.9325509424265874    -4.92e-06  7.46e-06  1.24e-04  4.85e-05     4.1
    9    -927.9325510053690778    -6.29e-08  3.30e-06  7.56e-05  2.50e-05     3.7
   10    -927.9325510700198265    -6.47e-08  1.65e-06  2.97e-05  1.04e-05     3.3
   11    -927.9325510665194088     3.50e-09  7.78e-07  1.63e-05  7.57e-06     0.7
                 **** Energy Check signals convergence ****

               *****************************************************
               *                     SUCCESS                       *
               *           SCF CONVERGED AFTER  11 CYCLES          *
               *****************************************************

Recomputing exchange energy using gridx3       ... done (   10.311 sec)
Old exchange energy                            :    -20.119266255 Eh
New exchange energy                            :    -20.119260520 Eh
Exchange energy change after final integration :      0.000005735 Eh
Total energy after final integration           :   -927.932545334 Eh
             **** ENERGY FILE WAS UPDATED (HFE_347pcf2_gauche2.en.tmp) ****

----------------
TOTAL SCF ENERGY
----------------

Total Energy       :       -927.93254533425113 Eh          -25250.32826 eV

Components:
Nuclear Repulsion  :        863.22194324825341 Eh           23489.46326 eV
Electronic Energy  :      -1791.15449431701268 Eh          -48739.79167 eV
One Electron Energy:      -3005.03259792011704 Eh          -81771.09415 eV
Two Electron Energy:       1213.87810360310436 Eh           33031.30248 eV

Virial components:
Potential Energy   :      -1851.57175653471290 Eh          -50383.82896 eV
Kinetic Energy     :        923.63921120046177 Eh           25133.50070 eV
Virial Ratio       :          2.00464828049928

DFT components:
N(Alpha)           :       48.999994066688 electrons
N(Beta)            :       48.999994066688 electrons
N(Total)           :       97.999988133376 electrons
E(X)               :      -80.089106190306 Eh       
E(C)               :       -4.265419010564 Eh       
E(XC)              :      -84.354525200870 Eh       

---------------
SCF CONVERGENCE
---------------

  Last Energy change         ...   -3.5004e-09  Tolerance :   1.0000e-08
  Last MAX-Density change    ...    1.6321e-05  Tolerance :   1.0000e-07
  Last RMS-Density change    ...    7.7774e-07  Tolerance :   5.0000e-09
  Last DIIS Error            ...    2.9132e-03  Tolerance :   5.0000e-07
  Last Orbital Gradient      ...    7.5672e-06  Tolerance :   1.0000e-05
  Last Orbital Rotation      ...    7.2130e-06  Tolerance :   1.0000e-05


----------------
ORBITAL ENERGIES
----------------

  NO   OCC          E(Eh)            E(eV) 
   0   2.0000     -24.740546      -673.2245 
   1   2.0000     -24.738237      -673.1617 
   2   2.0000     -24.736982      -673.1275 
   3   2.0000     -24.726562      -672.8440 
   4   2.0000     -24.725950      -672.8273 
   5   2.0000     -24.717099      -672.5865 
   6   2.0000     -24.714135      -672.5058 
   7   2.0000     -19.203104      -522.5430 
   8   2.0000     -10.429823      -283.8099 
   9   2.0000     -10.429486      -283.8007 
  10   2.0000     -10.375957      -282.3441 
  11   2.0000     -10.259421      -279.1730 
  12   2.0000      -1.302805       -35.4511 
  13   2.0000      -1.301214       -35.4078 
  14   2.0000      -1.281756       -34.8784 
  15   2.0000      -1.234846       -33.6019 
  16   2.0000      -1.221738       -33.2452 
  17   2.0000      -1.217547       -33.1312 
  18   2.0000      -1.211249       -32.9598 
  19   2.0000      -1.084471       -29.5100 
  20   2.0000      -0.811387       -22.0790 
  21   2.0000      -0.772141       -21.0110 
  22   2.0000      -0.682881       -18.5821 
  23   2.0000      -0.660733       -17.9795 
  24   2.0000      -0.615433       -16.7468 
  25   2.0000      -0.603431       -16.4202 
  26   2.0000      -0.601248       -16.3608 
  27   2.0000      -0.584750       -15.9118 
  28   2.0000      -0.580521       -15.7968 
  29   2.0000      -0.565591       -15.3905 
  30   2.0000      -0.556561       -15.1448 
  31   2.0000      -0.540458       -14.7066 
  32   2.0000      -0.493643       -13.4327 
  33   2.0000      -0.474879       -12.9221 
  34   2.0000      -0.460692       -12.5361 
  35   2.0000      -0.455603       -12.3976 
  36   2.0000      -0.454878       -12.3779 
  37   2.0000      -0.451622       -12.2893 
  38   2.0000      -0.447254       -12.1704 
  39   2.0000      -0.433862       -11.8060 
  40   2.0000      -0.426172       -11.5967 
  41   2.0000      -0.418681       -11.3929 
  42   2.0000      -0.416243       -11.3265 
  43   2.0000      -0.413720       -11.2579 
  44   2.0000      -0.407916       -11.1000 
  45   2.0000      -0.397588       -10.8189 
  46   2.0000      -0.384455       -10.4616 
  47   2.0000      -0.351536        -9.5658 
  48   2.0000      -0.314578        -8.5601 
  49   0.0000       0.060465         1.6453 
  50   0.0000       0.072579         1.9750 
  51   0.0000       0.097064         2.6412 
  52   0.0000       0.115229         3.1355 
  53   0.0000       0.119939         3.2637 
  54   0.0000       0.141678         3.8552 
  55   0.0000       0.195695         5.3251 
  56   0.0000       0.203042         5.5250 
  57   0.0000       0.211086         5.7439 
  58   0.0000       0.219267         5.9666 
  59   0.0000       0.223302         6.0764 
*Only the first 10 virtual orbitals were printed.

                    ********************************
                    * MULLIKEN POPULATION ANALYSIS *
                    ********************************

-----------------------
MULLIKEN ATOMIC CHARGES
-----------------------
   0 F :   -0.297881
   1 F :   -0.285249
   2 F :   -0.291615
   3 F :   -0.293633
   4 F :   -0.289721
   5 F :   -0.292016
   6 F :   -0.290438
   7 O :   -0.493157
   8 C :    0.823727
   9 C :   -0.163246
  10 C :    0.445927
  11 C :    0.896155
  12 H :    0.194360
  13 H :    0.179208
  14 H :    0.157579
Sum of atomic charges:   -0.0000000

--------------------------------
MULLIKEN REDUCED ORBITAL CHARGES
--------------------------------
  0 F s       :     3.977447  s :     3.977447
      pz      :     1.586611  p :     5.303422
      px      :     1.900176
      py      :     1.816634
      dz2     :     0.005889  d :     0.017012
      dxz     :     0.002900
      dyz     :     0.005644
      dx2y2   :     0.001436
      dxy     :     0.001144

  1 F s       :     3.977838  s :     3.977838
      pz      :     1.729008  p :     5.290190
      px      :     1.769872
      py      :     1.791310
      dz2     :     0.002945  d :     0.017221
      dxz     :     0.004360
      dyz     :     0.004250
      dx2y2   :     0.002549
      dxy     :     0.003115

  2 F s       :     3.967524  s :     3.967524
      pz      :     1.747496  p :     5.306416
      px      :     1.763287
      py      :     1.795632
      dz2     :     0.003190  d :     0.017675
      dxz     :     0.003953
      dyz     :     0.004230
      dx2y2   :     0.003302
      dxy     :     0.002999

  3 F s       :     3.970414  s :     3.970414
      pz      :     1.580012  p :     5.305857
      px      :     1.913771
      py      :     1.812073
      dz2     :     0.005774  d :     0.017362
      dxz     :     0.003274
      dyz     :     0.005770
      dx2y2   :     0.001476
      dxy     :     0.001068

  4 F s       :     3.969526  s :     3.969526
      pz      :     1.560697  p :     5.303152
      px      :     1.912827
      py      :     1.829629
      dz2     :     0.006190  d :     0.017043
      dxz     :     0.003691
      dyz     :     0.005307
      dx2y2   :     0.000952
      dxy     :     0.000902

  5 F s       :     3.970429  s :     3.970429
      pz      :     1.762286  p :     5.304620
      px      :     1.735095
      py      :     1.807238
      dz2     :     0.002859  d :     0.016967
      dxz     :     0.004417
      dyz     :     0.003258
      dx2y2   :     0.002874
      dxy     :     0.003560

  6 F s       :     3.968444  s :     3.968444
      pz      :     1.898800  p :     5.304941
      px      :     1.870641
      py      :     1.535499
      dz2     :     0.002328  d :     0.017052
      dxz     :     0.000717
      dyz     :     0.003448
      dx2y2   :     0.005674
      dxy     :     0.004884

  7 O s       :     3.888185  s :     3.888185
      pz      :     1.607245  p :     4.576606
      px      :     1.232339
      py      :     1.737022
      dz2     :     0.004986  d :     0.028366
      dxz     :     0.007676
      dyz     :     0.005479
      dx2y2   :     0.005932
      dxy     :     0.004293

  8 C s       :     2.848655  s :     2.848655
      pz      :     0.606155  p :     2.183626
      px      :     0.727605
      py      :     0.849866
      dz2     :     0.032734  d :     0.143992
      dxz     :     0.030207
      dyz     :     0.028118
      dx2y2   :     0.028767
      dxy     :     0.024166

  9 C s       :     3.223645  s :     3.223645
      pz      :     0.944479  p :     2.875278
      px      :     0.890877
      py      :     1.039921
      dz2     :     0.015567  d :     0.064323
      dxz     :     0.012218
      dyz     :     0.010232
      dx2y2   :     0.018029
      dxy     :     0.008277

 10 C s       :     3.045610  s :     3.045610
      pz      :     0.620410  p :     2.396085
      px      :     0.935500
      py      :     0.840176
      dz2     :     0.027827  d :     0.112378
      dxz     :     0.023046
      dyz     :     0.026268
      dx2y2   :     0.022576
      dxy     :     0.012661

 11 C s       :     2.796835  s :     2.796835
      pz      :     0.654650  p :     2.152546
      px      :     0.860718
      py      :     0.637178
      dz2     :     0.033203  d :     0.154464
      dxz     :     0.027412
      dyz     :     0.034376
      dx2y2   :     0.032134
      dxy     :     0.027339

 12 H s       :     0.805640  s :     0.805640

 13 H s       :     0.820792  s :     0.820792

 14 H s       :     0.842421  s :     0.842421



                     *******************************
                     * LOEWDIN POPULATION ANALYSIS *
                     *******************************

----------------------
LOEWDIN ATOMIC CHARGES
----------------------
   0 F :   -0.096540
   1 F :   -0.076343
   2 F :   -0.102152
   3 F :   -0.107663
   4 F :   -0.093536
   5 F :   -0.091215
   6 F :   -0.095181
   7 O :   -0.190789
   8 C :    0.221448
   9 C :   -0.149088
  10 C :    0.115594
  11 C :    0.243000
  12 H :    0.148812
  13 H :    0.141995
  14 H :    0.131659

-------------------------------
LOEWDIN REDUCED ORBITAL CHARGES
-------------------------------
  0 F s       :     3.741617  s :     3.741617
      pz      :     1.608413  p :     5.319917
      px      :     1.896641
      py      :     1.814864
      dz2     :     0.011948  d :     0.035006
      dxz     :     0.005986
      dyz     :     0.012543
      dx2y2   :     0.002677
      dxy     :     0.001852

  1 F s       :     3.738709  s :     3.738709
      pz      :     1.737350  p :     5.303665
      px      :     1.774937
      py      :     1.791378
      dz2     :     0.005196  d :     0.033970
      dxz     :     0.008750
      dyz     :     0.008830
      dx2y2   :     0.004891
      dxy     :     0.006303

  2 F s       :     3.739714  s :     3.739714
      pz      :     1.751101  p :     5.326337
      px      :     1.780252
      py      :     1.794985
      dz2     :     0.005939  d :     0.036101
      dxz     :     0.008513
      dyz     :     0.008362
      dx2y2   :     0.006749
      dxy     :     0.006538

  3 F s       :     3.743667  s :     3.743667
      pz      :     1.605434  p :     5.328844
      px      :     1.914708
      py      :     1.808701
      dz2     :     0.011565  d :     0.035152
      dxz     :     0.006823
      dyz     :     0.011972
      dx2y2   :     0.002793
      dxy     :     0.002000

  4 F s       :     3.741238  s :     3.741238
      pz      :     1.586044  p :     5.318123
      px      :     1.902688
      py      :     1.829391
      dz2     :     0.013046  d :     0.034175
      dxz     :     0.006819
      dyz     :     0.010780
      dx2y2   :     0.001929
      dxy     :     0.001600

  5 F s       :     3.739357  s :     3.739357
      pz      :     1.766377  p :     5.317896
      px      :     1.741996
      py      :     1.809522
      dz2     :     0.005279  d :     0.033963
      dxz     :     0.009590
      dyz     :     0.006678
      dx2y2   :     0.005175
      dxy     :     0.007240

  6 F s       :     3.740218  s :     3.740218
      pz      :     1.893285  p :     5.320546
      px      :     1.866026
      py      :     1.561235
      dz2     :     0.004860  d :     0.034417
      dxz     :     0.001142
      dyz     :     0.006178
      dx2y2   :     0.011788
      dxy     :     0.010450

  7 O s       :     3.495502  s :     3.495502
      pz      :     1.634037  p :     4.633780
      px      :     1.262999
      py      :     1.736745
      dz2     :     0.009807  d :     0.061507
      dxz     :     0.016990
      dyz     :     0.008614
      dx2y2   :     0.016138
      dxy     :     0.009958

  8 C s       :     2.842196  s :     2.842196
      pz      :     0.778891  p :     2.596627
      px      :     0.861604
      py      :     0.956133
      dz2     :     0.079895  d :     0.339729
      dxz     :     0.069473
      dyz     :     0.067582
      dx2y2   :     0.069649
      dxy     :     0.053131

  9 C s       :     2.943132  s :     2.943132
      pz      :     1.020890  p :     3.068133
      px      :     0.959312
      py      :     1.087931
      dz2     :     0.032508  d :     0.137823
      dxz     :     0.027550
      dyz     :     0.021200
      dx2y2   :     0.039454
      dxy     :     0.017111

 10 C s       :     2.909191  s :     2.909191
      pz      :     0.757958  p :     2.709869
      px      :     1.018905
      py      :     0.933006
      dz2     :     0.068225  d :     0.265347
      dxz     :     0.054268
      dyz     :     0.060943
      dx2y2   :     0.052455
      dxy     :     0.029456

 11 C s       :     2.835481  s :     2.835481
      pz      :     0.803904  p :     2.551982
      px      :     0.963165
      py      :     0.784914
      dz2     :     0.080330  d :     0.369536
      dxz     :     0.065190
      dyz     :     0.082039
      dx2y2   :     0.081068
      dxy     :     0.060908

 12 H s       :     0.851188  s :     0.851188

 13 H s       :     0.858005  s :     0.858005

 14 H s       :     0.868341  s :     0.868341



                      *****************************
                      * MAYER POPULATION ANALYSIS *
                      *****************************

  NA   - Mulliken gross atomic population
  ZA   - Total nuclear charge
  QA   - Mulliken gross atomic charge
  VA   - Mayer's total valence
  BVA  - Mayer's bonded valence
  FA   - Mayer's free valence

  ATOM       NA         ZA         QA         VA         BVA        FA
  0 F      9.2979     9.0000    -0.2979     1.0467     1.0467     0.0000
  1 F      9.2852     9.0000    -0.2852     1.0788     1.0788    -0.0000
  2 F      9.2916     9.0000    -0.2916     1.0601     1.0601     0.0000
  3 F      9.2936     9.0000    -0.2936     1.0486     1.0486    -0.0000
  4 F      9.2897     9.0000    -0.2897     1.0643     1.0643    -0.0000
  5 F      9.2920     9.0000    -0.2920     1.0664     1.0664     0.0000
  6 F      9.2904     9.0000    -0.2904     1.0661     1.0661    -0.0000
  7 O      8.4932     8.0000    -0.4932     1.9354     1.9354    -0.0000
  8 C      5.1763     6.0000     0.8237     3.8920     3.8920    -0.0000
  9 C      6.1632     6.0000    -0.1632     3.7735     3.7735    -0.0000
 10 C      5.5541     6.0000     0.4459     3.7926     3.7926    -0.0000
 11 C      5.1038     6.0000     0.8962     3.9734     3.9734    -0.0000
 12 H      0.8056     1.0000     0.1944     0.9343     0.9343     0.0000
 13 H      0.8208     1.0000     0.1792     0.9335     0.9335     0.0000
 14 H      0.8424     1.0000     0.1576     0.9271     0.9271    -0.0000

  Mayer bond orders larger than 0.100000
B(  0-F ,  8-C ) :   0.9435 B(  1-F ,  8-C ) :   0.9939 B(  2-F , 10-C ) :   0.9318 
B(  3-F , 10-C ) :   0.9716 B(  4-F , 11-C ) :   0.9932 B(  5-F , 11-C ) :   0.9798 
B(  6-F , 11-C ) :   1.0036 B(  7-O ,  8-C ) :   0.9677 B(  7-O ,  9-C ) :   0.8825 
B(  8-C , 10-C ) :   0.9040 B(  9-C , 11-C ) :   0.9721 B(  9-C , 12-H ) :   0.8797 
B(  9-C , 13-H ) :   0.9066 B( 10-C , 14-H ) :   0.9035 

-------
TIMINGS
-------

Total SCF time: 0 days 0 hours 0 min 50 sec 

Total time                  ....      50.368 sec
Sum of individual times     ....      47.434 sec  ( 94.2%)

SCF preparation             ....       0.129 sec  (  0.3%)
Fock matrix formation       ....      47.136 sec  ( 93.6%)
  Startup                   ....       0.007 sec  (  0.0% of F)
  Split-RI-J                ....       4.700 sec  ( 10.0% of F)
  Chain of spheres X        ....      40.558 sec  ( 86.0% of F)
  XC integration            ....       4.570 sec  (  9.7% of F)
    XC Preparation          ....       0.000 sec  (  0.0% of XC)
    Basis function eval.    ....       2.598 sec  ( 56.9% of XC)
    XC-Functional eval.     ....       0.454 sec  (  9.9% of XC)
    XC-Potential eval.      ....       1.932 sec  ( 42.3% of XC)
Diagonalization             ....       0.000 sec  (  0.0%)
Density matrix formation    ....       0.034 sec  (  0.1%)
Total Energy calculation    ....       0.003 sec  (  0.0%)
Population analysis         ....       0.007 sec  (  0.0%)
Orbital Transformation      ....       0.018 sec  (  0.0%)
Orbital Orthonormalization  ....       0.000 sec  (  0.0%)
DIIS solution               ....       0.059 sec  (  0.1%)
SOSCF solution              ....       0.048 sec  (  0.1%)
Finished LeanSCF after  50.4 sec

Maximum memory used throughout the entire LEANSCF-calculation: 21.5 MB

------------------------------------------------------------------------------
                         ORCA PROPERTY INTEGRAL CALCULATIONS
------------------------------------------------------------------------------

GBWName                                   ... HFE_347pcf2_gauche2.gbw
Number of atoms                           ...     15
Number of basis functions                 ...    174
Max core memory                           ...   4096 MB

Dipole integrals                          ... YES
Quadrupole integrals                      ...  NO
Linear momentum integrals                 ...  NO
Angular momentum integrals                ...  NO
Higher moments length integrals           ...  NO
Higher moments velocity integrals         ...  NO
Kinetic energy integrals                  ...  NO
GIAO right hand sides                     ...  NO
GIAO dipole derivative integrals          ...  NO
SOC integrals                             ...  NO
EPR diamagnetic integrals (GIAO)          ...  NO
EPR gauge integrals                       ...  NO
Field gradient integrals                  ...  NO (   0 nuclei)
Spin-dipole/Fermi contact integrals       ...  NO (   0 nuclei)
Contact density integrals                 ...  NO (   0 nuclei)
Nucleus-orbit integrals                   ...  NO (   0 nuclei)
Geometric perturbations                   ...  NO (  15 nuclei)

Choice of electric origin   ... Center of mass
Position of electric origin ... ( -0.0293,  0.0155, -0.0075) 
Choice of magnetic origin   ... GIAO
Position of magnetic origin ... (  0.0000,  0.0000,  0.0000) 

Calculating integrals                     ... Electric Dipole (Length)     done (  0.0 sec)

Property integrals calculated in   0.0 sec

Maximum memory used throughout the entire PROPINT-calculation: 12.7 MB

-------------------------   --------------------
FINAL SINGLE POINT ENERGY      -927.932545334251
-------------------------   --------------------

------------------------------------------------------------------------------
                         ORCA SCF GRADIENT CALCULATION
------------------------------------------------------------------------------

Nuc. rep. gradient        (SHARK) ... done (  0.0 sec)
HCore & Overlap gradient  (SHARK) ... done (  0.2 sec)
Split-RIJ-J gradient      (SHARK) ... done (  1.7 sec)
COSX-gradient                     ... done ( 25.6 sec)
XC gradient                       ... done (  4.0 sec)

------------------
CARTESIAN GRADIENT
------------------

   1   F   :   -0.005292382   -0.000110200   -0.003629239
   2   F   :    0.012440266   -0.008162823   -0.005349903
   3   F   :   -0.016492559   -0.007791349   -0.014659732
   4   F   :   -0.001351144    0.003828940    0.002609527
   5   F   :    0.000352202    0.000498982   -0.003267885
   6   F   :   -0.005711489    0.000495861   -0.001094105
   7   F   :    0.003716496   -0.001207482    0.000320522
   8   O   :   -0.031298832    0.006177651   -0.001669581
   9   C   :    0.036652076    0.013649010    0.013113005
  10   C   :    0.020185896   -0.011224438   -0.000146814
  11   C   :   -0.018363156   -0.017625416    0.006089034
  12   C   :    0.006561228    0.018682476    0.011244454
  13   H   :   -0.001496172    0.003632315   -0.003058723
  14   H   :    0.001869923   -0.001698346    0.000686354
  15   H   :   -0.001772352    0.000854818   -0.001186915

Difference to translation invariance:
           :   -0.0000000001   -0.0000000001   -0.0000000001

Difference to rotation invariance:
           :   -0.0001694886   -0.0002080118    0.0001236031

Norm of the Cartesian gradient     ...    0.0736115332
RMS gradient                       ...    0.0109733595
MAX gradient                       ...    0.0366520756

-------
TIMINGS
-------

Total SCF gradient time     ....       31.445 sec

Densities                   ....       0.001 sec  (  0.0%)
One electron gradient       ....       0.200 sec  (  0.6%)
RI-J Coulomb gradient       ....       1.672 sec  (  5.3%)
COSX gradient               ....      25.599 sec  ( 81.4%)
XC gradient                 ....       3.965 sec  ( 12.6%)

Maximum memory used throughout the entire SCFGRAD-calculation: 25.5 MB
------------------------------------------------------------------------------
                         ORCA GEOMETRY RELAXATION STEP
------------------------------------------------------------------------------

Reading the OPT-File                    .... done
Getting information on internals        .... done
Copying old internal coords+grads       .... done
Making the new internal coordinates     .... (2022 redundants) done
Validating the new internal coordinates .... (2022 redundants) done
Calculating the B-matrix                .... done
Calculating the G,G- and P matrices     .... done
Transforming gradient to internals      .... done
Projecting the internal gradient        .... done
Number of atoms                         ....  15
Number of internal coordinates          ....  57
Current Energy                          ....  -927.932545334 Eh
Current gradient norm                   ....     0.073611533 Eh/bohr
Maximum allowed component of the step   ....  0.300
Current trust radius                    ....  0.300
Evaluating the initial hessian          ....  (Almloef) done
Projecting the Hessian                  .... done
Forming the augmented Hessian           .... done
Diagonalizing the augmented Hessian     .... done
Last element of RFO vector              ....  0.899534932
Lowest eigenvalues of augmented Hessian:
 -0.060268411  0.013131391  0.014763240  0.019700036  0.023979083
Length of the computed step             ....  0.485638546
Warning: the length of the step is outside the trust region - taking restricted step instead
The input lambda is                     ....     0.012131
   iter:   5  x=    0.003236  g= 2060.961648 f(x)=     7.640774
   iter:  10  x=   -0.099212  g=    3.719462 f(x)=     0.160215
   iter:  15  x=   -0.187714  g=    0.441319 f(x)=     0.000000
The output lambda is                    ....    -0.187714 (17 iterations)
The final length of the internal step   ....  0.300000000
Converting the step to Cartesian space:
 Initial RMS(Int)=    0.0397359707
Transforming coordinates:
 Iter   0:  RMS(Cart)=    0.2750575648 RMS(Int)=    1.1705368988
 Iter   5:  RMS(Cart)=    0.0000631923 RMS(Int)=    0.0000514326
 Iter  10:  RMS(Cart)=    0.0000000622 RMS(Int)=    0.0000000496
done
Storing new coordinates                 .... done

                                .--------------------.
          ----------------------|Geometry convergence|-------------------------
          Item                value                   Tolerance       Converged
          ---------------------------------------------------------------------
          RMS gradient        0.0196646804            0.0001000000      NO
          MAX gradient        0.0865201837            0.0003000000      NO
          RMS step            0.0397359707            0.0020000000      NO
          MAX step            0.1480610436            0.0040000000      NO
          -------------------------------------------------------------------------
          ........................................................
          Max(Bonds)      0.0293      Max(Angles)    8.48
          Max(Dihed)        5.16      Max(Improp)    0.00
          ---------------------------------------------------------------------

The optimization has not yet converged - more geometry cycles are needed


    ---------------------------------------------------------------------------
                         Redundant Internal Coordinates
                            (Angstroem and degrees)

        Definition                    Value    dE/dq     Step     New-Value
    ----------------------------------------------------------------------------
     1. B(C   8,F   1)                1.3540  0.014618 -0.0099    1.3441   
     2. B(C   8,O   7)                1.4217  0.004684 -0.0036    1.4181   
     3. B(C   8,F   0)                1.3550 -0.003496  0.0024    1.3573   
     4. B(C   9,O   7)                1.4207 -0.007883  0.0061    1.4267   
     5. B(C  10,F   3)                1.3555 -0.000417  0.0003    1.3558   
     6. B(C  10,C   8)                1.5052 -0.032996  0.0293    1.5345   
     7. B(C  10,F   2)                1.3559 -0.004183  0.0028    1.3588   
     8. B(C  11,F   6)                1.3498 -0.000071  0.0000    1.3498   
     9. B(C  11,F   5)                1.3498  0.003178 -0.0021    1.3476   
    10. B(C  11,C   9)                1.5066 -0.007800  0.0069    1.5136   
    11. B(C  11,F   4)                1.3510  0.003144 -0.0021    1.3489   
    12. B(H  12,C   9)                1.0875  0.003304 -0.0032    1.0843   
    13. B(H  13,C   9)                1.0942  0.001390 -0.0014    1.0928   
    14. B(H  14,C  10)                1.0929 -0.002015  0.0020    1.0948   
    15. A(C   8,O   7,C   9)          112.56 -0.086520    8.48    121.04   
    16. A(F   1,C   8,C  10)          110.06  0.025247   -3.06    107.00   
    17. A(F   1,C   8,O   7)          109.61  0.038490   -4.37    105.24   
    18. A(O   7,C   8,C  10)          110.34 -0.080467    8.47    118.81   
    19. A(F   0,C   8,C  10)          109.68  0.016361   -1.03    108.64   
    20. A(F   0,C   8,F   1)          107.97 -0.006699   -0.31    107.66   
    21. A(F   0,C   8,O   7)          109.13  0.008801    0.12    109.25   
    22. A(H  12,C   9,H  13)          111.29  0.002797   -0.19    111.09   
    23. A(C  11,C   9,H  13)          110.80  0.002993   -0.61    110.19   
    24. A(O   7,C   9,H  13)          111.36 -0.005473    0.37    111.73   
    25. A(C  11,C   9,H  12)          101.41 -0.011549    1.47    102.88   
    26. A(O   7,C   9,H  12)          112.47 -0.003593    0.58    113.04   
    27. A(O   7,C   9,C  11)          109.08  0.015073   -1.61    107.47   
    28. A(F   3,C  10,H  14)          109.09  0.005529   -0.85    108.24   
    29. A(F   2,C  10,H  14)          109.06  0.006951   -1.00    108.06   
    30. A(F   2,C  10,F   3)          106.81 -0.001586    0.82    107.63   
    31. A(F   3,C  10,C   8)          109.51  0.011735   -0.95    108.56   
    32. A(C   8,C  10,H  14)          112.52  0.008522   -1.22    111.30   
    33. A(F   2,C  10,C   8)          109.68 -0.031515    3.30    112.98   
    34. A(F   4,C  11,C   9)          110.61 -0.002730    0.23    110.85   
    35. A(F   5,C  11,F   6)          108.10  0.002448   -0.17    107.93   
    36. A(F   4,C  11,F   6)          107.71 -0.000653    0.12    107.83   
    37. A(F   4,C  11,F   5)          107.74 -0.002830    0.14    107.88   
    38. A(F   6,C  11,C   9)          111.27 -0.008667    0.92    112.18   
    39. A(F   5,C  11,C   9)          111.27  0.012314   -1.24    110.03   
    40. D(F   1,C   8,O   7,C   9)    178.64  0.012946   -2.77    175.87   
    41. D(F   0,C   8,O   7,C   9)     60.59 -0.006558    0.09     60.67   
    42. D(C  10,C   8,O   7,C   9)    -60.00  0.017706   -3.98    -63.97   
    43. D(H  13,C   9,O   7,C   8)    -56.74 -0.001793    1.07    -55.67   
    44. D(H  12,C   9,O   7,C   8)     68.97 -0.005187    1.55     70.52   
    45. D(C  11,C   9,O   7,C   8)   -179.34 -0.012284    2.70   -176.64   
    46. D(F   2,C  10,C   8,F   0)    -61.72  0.002760    0.34    -61.38   
    47. D(F   3,C  10,C   8,O   7)    -58.38 -0.013272    2.82    -55.56   
    48. D(F   3,C  10,C   8,F   1)     62.72 -0.001016    0.86     63.58   
    49. D(F   3,C  10,C   8,F   0)   -178.63  0.016106   -2.01   -180.64   
    50. D(F   2,C  10,C   8,O   7)     58.54 -0.026618    5.16     63.70   
    51. D(F   2,C  10,C   8,F   1)    179.63 -0.014362    3.21    182.84   
    52. D(F   4,C  11,C   9,H  13)    177.50 -0.000957    0.20    177.70   
    53. D(F   4,C  11,C   9,H  12)     59.28  0.000750   -0.11     59.17   
    54. D(F   4,C  11,C   9,O   7)    -59.56  0.004341   -0.83    -60.39   
    55. D(F   5,C  11,C   9,H  13)     57.79 -0.003658    0.67     58.46   
    56. D(F   5,C  11,C   9,H  12)    -60.43 -0.001951    0.37    -60.06   
    57. D(F   5,C  11,C   9,O   7)   -179.27  0.001640   -0.35   -179.62   
    ----------------------------------------------------------------------------

Geometry step timings:
Preparation and reading OPT file:      0.000 s ( 4.114 %)
Internal coordinates            :      0.000 s ( 4.032 %)
B/P matrices and projection     :      0.001 s (23.712 %)
Hessian update/contruction      :      0.001 s (22.166 %)
Making the step                 :      0.001 s (22.676 %)
Converting the step to Cartesian:      0.000 s ( 5.052 %)
Storing new data                :      0.000 s ( 2.748 %)
Checking convergence            :      0.000 s ( 1.415 %)
Final printing                  :      0.001 s (14.004 %)
Total time                      :      0.006 s

Time for energy+gradient        :     85.367 s
Time for complete geometry iter :     85.563 s

         *************************************************************
         *                GEOMETRY OPTIMIZATION CYCLE   2            *
         *************************************************************
---------------------------------
CARTESIAN COORDINATES (ANGSTROEM)
---------------------------------
  F      1.608031   -1.194136    1.218401
  F      2.055438   -1.250465   -0.914039
  F      1.766140    1.611101    1.136641
  F      2.100959    1.467988   -1.023657
  F     -2.297379    0.475064   -1.294207
  F     -3.183932    0.498893    0.697094
  F     -2.540506   -1.388357   -0.187282
  O      0.088627   -0.488404   -0.299584
  C      1.463078   -0.522226    0.047989
  C     -0.870762    0.134614    0.553035
  C      2.232252    0.801656    0.149800
  C     -2.235351   -0.079103   -0.065935
  H     -0.781417    1.215032    0.574564
  H     -0.845360   -0.282334    1.562901
  H      3.298583    0.629076    0.328078

----------------------------
CARTESIAN COORDINATES (A.U.)
----------------------------
  NO LB      ZA    FRAG     MASS         X           Y           Z
   0 F     9.0000    0    18.998    3.038737   -2.256590    2.302445
   1 F     9.0000    0    18.998    3.884214   -2.363036   -1.727283
   2 F     9.0000    0    18.998    3.337521    3.044539    2.147940
   3 F     9.0000    0    18.998    3.970237    2.774096   -1.934431
   4 F     9.0000    0    18.998   -4.341417    0.897740   -2.445696
   5 F     9.0000    0    18.998   -6.016760    0.942772    1.317317
   6 F     9.0000    0    18.998   -4.800860   -2.623614   -0.353911
   7 O     8.0000    0    15.999    0.167480   -0.922950   -0.566132
   8 C     6.0000    0    12.011    2.764816   -0.986864    0.090686
   9 C     6.0000    0    12.011   -1.645502    0.254384    1.045085
  10 C     6.0000    0    12.011    4.218345    1.514911    0.283081
  11 C     6.0000    0    12.011   -4.224201   -0.149484   -0.124600
  12 H     1.0000    0     1.008   -1.476664    2.296079    1.085768
  13 H     1.0000    0     1.008   -1.597499   -0.533534    2.953455
  14 H     1.0000    0     1.008    6.233419    1.188781    0.619978

--------------------------------
INTERNAL COORDINATES (ANGSTROEM)
--------------------------------
 F      0   0   0     0.000000000000     0.00000000     0.00000000
 F      1   0   0     2.179597686217     0.00000000     0.00000000
 F      1   2   0     2.810878248459    89.18566967     0.00000000
 F      3   1   2     2.190769494988    88.40039154     2.91892866
 F      4   3   1     4.517131054040    85.67625769    74.01443632
 F      5   4   3     2.179867554656   109.80919907     0.51098255
 F      5   4   3     2.180992663850   105.42351240   297.35185536
 O      2   1   3     2.196960729547    62.20147645   289.43522269
 C      2   1   3     1.344142537653    36.41900748   328.57027461
 C      8   2   1     1.426722816767   157.01544085    28.11673974
 C      4   3   1     1.355815820660    36.23924854   334.35526041
 C      6   5   4     1.347628124239    36.08110348   300.75077139
 H     10   8   2     1.084319809397   113.05185404    76.63268403
 H     10   8   2     1.092849395929   111.71532811   310.44214559
 H     11   4   3     1.094819816118   108.22348873   243.46981931

---------------------------
INTERNAL COORDINATES (A.U.)
---------------------------
 F      0   0   0     0.000000000000     0.00000000     0.00000000
 F      1   0   0     4.118842709078     0.00000000     0.00000000
 F      1   2   0     5.311790085384    89.18566967     0.00000000
 F      3   1   2     4.139954368076    88.40039154     2.91892866
 F      4   3   1     8.536140603167    85.67625769    74.01443632
 F      5   4   3     4.119352686520   109.80919907     0.51098255
 F      5   4   3     4.121478834768   105.42351240   297.35185536
 O      2   1   3     4.151654105825    62.20147645   289.43522269
 C      2   1   3     2.540061281119    36.41900748   328.57027461
 C      8   2   1     2.696115392707   157.01544085    28.11673974
 C      4   3   1     2.562120589086    36.23924854   334.35526041
 C      6   5   4     2.546648085182    36.08110348   300.75077139
 H     10   8   2     2.049067481346   113.05185404    76.63268403
 H     10   8   2     2.065186063927   111.71532811   310.44214559
 H     11   4   3     2.068909618453   108.22348873   243.46981931

------------------------------------------------------------------------------
                   ___                                                        
                  /   \      - P O W E R E D   B Y -                         
                 /     \                                                     
                 |  |  |   _    _      __       _____    __    __             
                 |  |  |  | |  | |    /  \     |  _  \  |  |  /  |          
                  \  \/   | |  | |   /    \    | | | |  |  | /  /          
                 / \  \   | |__| |  /  /\  \   | |_| |  |  |/  /          
                |  |  |   |  __  | /  /__\  \  |    /   |      \           
                |  |  |   | |  | | |   __   |  |    \   |  |\   \          
                \     /   | |  | | |  |  |  |  | |\  \  |  | \   \       
[...]
freq.     295.12  E(vib)   ...       0.30 
freq.     323.29  E(vib)   ...       0.28 
freq.     356.65  E(vib)   ...       0.26 
freq.     365.04  E(vib)   ...       0.25 
freq.     438.54  E(vib)   ...       0.20 
freq.     507.15  E(vib)   ...       0.17 
freq.     525.74  E(vib)   ...       0.16 
freq.     539.34  E(vib)   ...       0.15 
freq.     570.99  E(vib)   ...       0.14 
freq.     608.88  E(vib)   ...       0.12 
freq.     658.85  E(vib)   ...       0.10 
freq.     705.71  E(vib)   ...       0.09 
freq.     854.36  E(vib)   ...       0.05 
freq.     881.79  E(vib)   ...       0.05 
freq.     991.56  E(vib)   ...       0.03 
freq.    1105.09  E(vib)   ...       0.02 
freq.    1124.86  E(vib)   ...       0.02 
freq.    1159.67  E(vib)   ...       0.02 
freq.    1163.90  E(vib)   ...       0.02 
freq.    1209.68  E(vib)   ...       0.02 
freq.    1218.80  E(vib)   ...       0.01 
freq.    1249.49  E(vib)   ...       0.01 
freq.    1293.29  E(vib)   ...       0.01 
freq.    1336.69  E(vib)   ...       0.01 
freq.    1354.34  E(vib)   ...       0.01 
freq.    1403.20  E(vib)   ...       0.01 
freq.    1438.27  E(vib)   ...       0.01 
freq.    1466.31  E(vib)   ...       0.01 
freq.    1519.69  E(vib)   ...       0.00 
freq.    3101.56  E(vib)   ...       0.00 
freq.    3121.07  E(vib)   ...       0.00 
freq.    3167.01  E(vib)   ...       0.00 

------------
INNER ENERGY
------------

The inner energy is: U= E(el) + E(ZPE) + E(vib) + E(rot) + E(trans)
    E(el)   - is the total energy from the electronic structure calculation
              = E(kin-el) + E(nuc-el) + E(el-el) + E(nuc-nuc)
    E(ZPE)  - the the zero temperature vibrational energy from the frequency calculation
    E(vib)  - the the finite temperature correction to E(ZPE) due to population
              of excited vibrational states
    E(rot)  - is the rotational thermal energy
    E(trans)- is the translational thermal energy

Summary of contributions to the inner energy U:
Electronic energy                ...   -927.94927611 Eh
Zero point energy                ...      0.08396405 Eh      52.69 kcal/mol
Thermal vibrational correction   ...      0.00950653 Eh       5.97 kcal/mol
Thermal rotational correction    ...      0.00152006 Eh       0.95 kcal/mol
Thermal translational correction ...      0.00152006 Eh       0.95 kcal/mol
-----------------------------------------------------------------------
Total thermal energy                   -927.85276541 Eh


Summary of corrections to the electronic energy:
(perhaps to be used in another calculation)
Total thermal correction                  0.01254666 Eh       7.87 kcal/mol
Non-thermal (ZPE) correction              0.08396405 Eh      52.69 kcal/mol
-----------------------------------------------------------------------
Total correction                          0.09651071 Eh      60.56 kcal/mol


--------
ENTHALPY
--------

The enthalpy is H = U + kB*T
                kB is Boltzmann's constant
Total thermal energy              ...   -927.85276541 Eh 
Thermal Enthalpy correction       ...      0.00101341 Eh       0.64 kcal/mol
-----------------------------------------------------------------------
Total Enthalpy                    ...   -927.85175200 Eh


Note: Only C1 symmetry has been detected, increase convergence thresholds 
      if your molecule has a higher symmetry. Symmetry factor of 1.0 is   
      used for the rotational entropy correction. 
 

Note: Rotational entropy computed according to Herzberg 
Infrared and Raman Spectra, Chapter V,1, Van Nostrand Reinhold, 1945 
Point Group:  C1, Symmetry Number:   1  
Rotational constants in cm-1:     0.051140     0.017349     0.016367 

Vibrational entropy computed according to the QRRHO of S. Grimme
Chem.Eur.J. 2012 18 9955 using a reference frequency of 100.0 cm-1


-------
ENTROPY
-------

The entropy contributions are T*S = T*(S(el)+S(vib)+S(rot)+S(trans))
     S(el)   - electronic entropy
     S(vib)  - vibrational entropy
     S(rot)  - rotational entropy
     S(trans)- translational entropy
The entropies will be listed as multiplied by the temperature to get
units of energy

Electronic entropy                ...      0.00000000 Eh      0.00 kcal/mol
Vibrational entropy               ...      0.01710282 Eh     10.73 kcal/mol
Rotational entropy                ...      0.01595978 Eh     10.01 kcal/mol
Translational entropy             ...      0.02148743 Eh     13.48 kcal/mol
-----------------------------------------------------------------------
Final entropy term                ...      0.05455003 Eh     34.23 kcal/mol

In case the symmetry of your molecule has not been determined correctly
or in case you have a reason to use a different symmetry number we print 
out the resulting rotational entropy values for sn=1,12:

 non-linear molecules -----------------------------------
|  sn= 1 | S(rot)=       0.01595978 Eh     10.01 kcal/mol|
|  sn= 2 | S(rot)=       0.01525737 Eh      9.57 kcal/mol|
|  sn= 3 | S(rot)=       0.01484648 Eh      9.32 kcal/mol|
|  sn= 4 | S(rot)=       0.01455495 Eh      9.13 kcal/mol|
|  sn= 5 | S(rot)=       0.01432882 Eh      8.99 kcal/mol|
|  sn= 6 | S(rot)=       0.01414406 Eh      8.88 kcal/mol|
|  sn= 7 | S(rot)=       0.01398785 Eh      8.78 kcal/mol|
|  sn= 8 | S(rot)=       0.01385253 Eh      8.69 kcal/mol|
|  sn= 9 | S(rot)=       0.01373317 Eh      8.62 kcal/mol|
|  sn=10 | S(rot)=       0.01362640 Eh      8.55 kcal/mol|
|  sn=11 | S(rot)=       0.01352982 Eh      8.49 kcal/mol|
|  sn=12 | S(rot)=       0.01344164 Eh      8.43 kcal/mol|
 linear molecules ---------------------------------------
|  Dinfh | S(rot)=       0.00995530 Eh      6.25 kcal/mol|
|  Cinfv | S(rot)=       0.01065771 Eh      6.69 kcal/mol|
 --------------------------------------------------------


-------------------
GIBBS FREE ENERGY
-------------------

The Gibbs free energy is G = H - T*S

Total enthalpy                    ...   -927.85175200 Eh 
Total entropy correction          ...     -0.05455003 Eh    -34.23 kcal/mol
-----------------------------------------------------------------------
Final Gibbs free energy         ...   -927.90630203 Eh

For completeness - the Gibbs free energy minus the electronic energy
G-E(el)                           ...      0.04297408 Eh     26.97 kcal/mol


The first frequency considered to be a vibration is 6
The total number of vibrations considered is 39


--------------------------
THERMOCHEMISTRY AT 340.00K
--------------------------

Temperature         ...   340.00 K
Pressure            ...     1.00 atm
Total Mass          ...   200.05 AMU
Quasi RRHO          ...     True
Cut-Off Frequency   ...     1.00 cm^-1

Throughout the following assumptions are being made:
  (1) The electronic state is orbitally nondegenerate
  (2) There are no thermally accessible electronically excited states
  (3) Hindered rotations indicated by low frequency modes are not
      treated as such but are treated as vibrations and this may
      cause some error
  (4) All equations used are the standard statistical mechanics
      equations for an ideal gas
  (5) All vibrations are strictly harmonic

freq.      27.31  E(vib)   ...       0.64 
freq.      38.17  E(vib)   ...       0.62 
freq.      78.90  E(vib)   ...       0.57 
freq.      92.37  E(vib)   ...       0.55 
freq.     152.29  E(vib)   ...       0.48 
freq.     198.09  E(vib)   ...       0.43 
freq.     212.89  E(vib)   ...       0.42 
freq.     295.12  E(vib)   ...       0.34 
freq.     323.29  E(vib)   ...       0.32 
freq.     356.65  E(vib)   ...       0.29 
freq.     365.04  E(vib)   ...       0.28 
freq.     438.54  E(vib)   ...       0.23 
freq.     507.15  E(vib)   ...       0.19 
freq.     525.74  E(vib)   ...       0.18 
freq.     539.34  E(vib)   ...       0.18 
freq.     570.99  E(vib)   ...       0.16 
freq.     608.88  E(vib)   ...       0.14 
freq.     658.85  E(vib)   ...       0.12 
freq.     705.71  E(vib)   ...       0.11 
freq.     854.36  E(vib)   ...       0.07 
freq.     881.79  E(vib)   ...       0.06 
freq.     991.56  E(vib)   ...       0.04 
freq.    1105.09  E(vib)   ...       0.03 
freq.    1124.86  E(vib)   ...       0.03 
freq.    1159.67  E(vib)   ...       0.02 
freq.    1163.90  E(vib)   ...       0.02 
freq.    1209.68  E(vib)   ...       0.02 
freq.    1218.80  E(vib)   ...       0.02 
freq.    1249.49  E(vib)   ...       0.02 
freq.    1293.29  E(vib)   ...       0.02 
freq.    1336.69  E(vib)   ...       0.01 
freq.    1354.34  E(vib)   ...       0.01 
freq.    1403.20  E(vib)   ...       0.01 
freq.    1438.27  E(vib)   ...       0.01 
freq.    1466.31  E(vib)   ...       0.01 
freq.    1519.69  E(vib)   ...       0.01 
freq.    3101.56  E(vib)   ...       0.00 
freq.    3121.07  E(vib)   ...       0.00 
freq.    3167.01  E(vib)   ...       0.00 

------------
INNER ENERGY
------------

The inner energy is: U= E(el) + E(ZPE) + E(vib) + E(rot) + E(trans)
    E(el)   - is the total energy from the electronic structure calculation
              = E(kin-el) + E(nuc-el) + E(el-el) + E(nuc-nuc)
    E(ZPE)  - the the zero temperature vibrational energy from the frequency calculation
    E(vib)  - the the finite temperature correction to E(ZPE) due to population
              of excited vibrational states
    E(rot)  - is the rotational thermal energy
    E(trans)- is the translational thermal energy

Summary of contributions to the inner energy U:
Electronic energy                ...   -927.94927611 Eh
Zero point energy                ...      0.08396405 Eh      52.69 kcal/mol
Thermal vibrational correction   ...      0.01062868 Eh       6.67 kcal/mol
Thermal rotational correction    ...      0.00161507 Eh       1.01 kcal/mol
Thermal translational correction ...      0.00161507 Eh       1.01 kcal/mol
-----------------------------------------------------------------------
Total thermal energy                   -927.85145325 Eh


Summary of corrections to the electronic energy:
(perhaps to be used in another calculation)
Total thermal correction                  0.01385882 Eh       8.70 kcal/mol
Non-thermal (ZPE) correction              0.08396405 Eh      52.69 kcal/mol
-----------------------------------------------------------------------
Total correction                          0.09782287 Eh      61.38 kcal/mol


--------
ENTHALPY
--------

The enthalpy is H = U + kB*T
                kB is Boltzmann's constant
Total thermal energy              ...   -927.85145325 Eh 
Thermal Enthalpy correction       ...      0.00107674 Eh       0.68 kcal/mol
-----------------------------------------------------------------------
Total Enthalpy                    ...   -927.85037650 Eh


Note: Only C1 symmetry has been detected, increase convergence thresholds 
      if your molecule has a higher symmetry. Symmetry factor of 1.0 is   
      used for the rotational entropy correction. 
 

Note: Rotational entropy computed according to Herzberg 
Infrared and Raman Spectra, Chapter V,1, Van Nostrand Reinhold, 1945 
Point Group:  C1, Symmetry Number:   1  
Rotational constants in cm-1:     0.051140     0.017349     0.016367 

Vibrational entropy computed according to the QRRHO of S. Grimme
Chem.Eur.J. 2012 18 9955 using a reference frequency of 100.0 cm-1


-------
ENTROPY
-------

The entropy contributions are T*S = T*(S(el)+S(vib)+S(rot)+S(trans))
     S(el)   - electronic entropy
     S(vib)  - vibrational entropy
     S(rot)  - rotational entropy
     S(trans)- translational entropy
The entropies will be listed as multiplied by the temperature to get
units of energy

Electronic entropy                ...      0.00000000 Eh      0.00 kcal/mol
Vibrational entropy               ...      0.01921366 Eh     12.06 kcal/mol
Rotational entropy                ...      0.01705518 Eh     10.70 kcal/mol
Translational entropy             ...      0.02299358 Eh     14.43 kcal/mol
-----------------------------------------------------------------------
Final entropy term                ...      0.05926243 Eh     37.19 kcal/mol

In case the symmetry of your molecule has not been determined correctly
or in case you have a reason to use a different symmetry number we print 
out the resulting rotational entropy values for sn=1,12:

 non-linear molecules -----------------------------------
|  sn= 1 | S(rot)=       0.01705518 Eh     10.70 kcal/mol|
|  sn= 2 | S(rot)=       0.01630886 Eh     10.23 kcal/mol|
|  sn= 3 | S(rot)=       0.01587230 Eh      9.96 kcal/mol|
|  sn= 4 | S(rot)=       0.01556255 Eh      9.77 kcal/mol|
|  sn= 5 | S(rot)=       0.01532228 Eh      9.61 kcal/mol|
|  sn= 6 | S(rot)=       0.01512598 Eh      9.49 kcal/mol|
|  sn= 7 | S(rot)=       0.01496000 Eh      9.39 kcal/mol|
|  sn= 8 | S(rot)=       0.01481623 Eh      9.30 kcal/mol|
|  sn= 9 | S(rot)=       0.01468941 Eh      9.22 kcal/mol|
|  sn=10 | S(rot)=       0.01457596 Eh      9.15 kcal/mol|
|  sn=11 | S(rot)=       0.01447334 Eh      9.08 kcal/mol|
|  sn=12 | S(rot)=       0.01437966 Eh      9.02 kcal/mol|
 linear molecules ---------------------------------------
|  Dinfh | S(rot)=       0.01064278 Eh      6.68 kcal/mol|
|  Cinfv | S(rot)=       0.01138910 Eh      7.15 kcal/mol|
 --------------------------------------------------------


-------------------
GIBBS FREE ENERGY
-------------------

The Gibbs free energy is G = H - T*S

Total enthalpy                    ...   -927.85037650 Eh 
Total entropy correction          ...     -0.05926243 Eh    -37.19 kcal/mol
-----------------------------------------------------------------------
Final Gibbs free energy         ...   -927.90963893 Eh

For completeness - the Gibbs free energy minus the electronic energy
G-E(el)                           ...      0.03963718 Eh     24.87 kcal/mol


Maximum memory used throughout the entire PROP-calculation: 54.9 MB

--------------------------------
SUGGESTED CITATIONS FOR THIS RUN
--------------------------------

Below you find a list of papers that are relevant to this ORCA run
We neither can nor want to force you to cite these papers, but we appreciate if you do
You receive ORCA, which is the product of decades of hard work by many enthusiastic individuals, for free
The only thing we kindly ask in return is that you cite our papers,
We deeply appreciate it, if you show your appreciation for ORCA by not just citing the generic ORCA reference.

Please note that relegating all ORCA citations to the supporting information does *not* help us.
SI sections are not indexed - citations you put there will not count into any citation statistics
But we need these citations in order to attract the funding resources that allow us to do what we are doing

Therefore, if you are a happy ORCA user, please consider citing a few of the papers listed below in the main body of your paper

In addition to the list printed below, the program has created the file HFE_347pcf2_gauche2.bibtex that contains the list in bibtex format
You can import this file easily into all common literature databanks and citation aid programs

It goes without saying that in many instances, there are alternative algorithms to achieve similar
results as the ones you have gotten from ORCA. It is, of course, also the case that in some instances
ORCA just re-implements algorithms worked out by others. We are fully aware of that and we are also
fully appreciative of our colleagues work. Hence this citation list should not be read as indicating
that the listed papers, which are focused on our own work, are the only ones worth citing. It simply
meant to make it easier for users to cite ORCA specific papers. It is not a substitute for doing your
own literature research and citing the relevant literature in a scientifically appropriate manner.

List of essential papers. We consider these as the minimum necessary citations

  1. Neese, F.
     Software update: the ORCA program system, version 6.0
     WIRES Comput. Molec. Sci. 2025 15(1), e70019
     doi.org/10.1002/wcms.70019

List of papers to cite with high priority. The work reported in these papers was absolutely
necessary for this run to complete.
Our perspective: the developers of density functionals and basis sets usually get cited in chemistry papers
Good! But without the algorithms to do something with them, the functionals or basis sets would not do anything.
Hence, in our opinion, the algorithm design and method developments papers are equally worthy of getting cited

  1. Neese, F.
     An improvement of the resolution of the identity approximation for the formation of the Coulomb matrix
     J. Comp. Chem. 2003 24(14), 1740-1747
     doi.org/10.1002/jcc.10318
  2. Neese, F.; Wennmohs, F.; Hansen, A.; Becker, U.
     Efficient, approximate and parallel Hartree-Fock and hybrid DFT calculations. A 'chain-of-spheres' algorithm for the Hartree-Fock exchange
     Chem. Phys. 2009 356(1-3), 98-109
     doi.org/10.1016/j.chemphys.2008.10.036
  3. Bykov, D.; Petrenko, T.; Izsak, R.; Kossmann, S.; Becker, U.; Valeev, E.; Neese, F.
     Efficient implementation of the analytic second derivatives of Hartree-Fock and hybrid DFT energies: a detailed analysis of different approximations
     Molec. Phys. 2015 113 , 1961-1977
     doi.org/10.1080/00268976.2015.1025114
  4. Helmich-Paris, B.; de Souza, B.; Neese, F.; Izsák, R.
     An improved chain of spheres for exchange algorithm
     J. Chem. Phys. 2021 155(10), 104109
     doi.org/10.1063/5.0058766
  5. Neese, F.
     The SHARK Integral Generation and Digestion System
     J. Comp. Chem. 2022 44(3), 381
     doi.org/10.1002/jcc.26942

List of suggested additional citations. These are papers that are important in the 'surrounding' of 
of this run, or papers that preceded the highly important papers. If you like your results we are grateful for a citation.

  1. Izsak, R.; Neese, F.
     An overlap fitted chain of spheres exchange method
     J. Chem. Phys. 2011 135 , 144105
     doi.org/10.1063/1.3646921
  2. Izsak, R.; Hansen, A.; Neese, F.
     The resolution of identity and chain of spheres approximations for the LPNO-CCSD singles Fock term
     Molec. Phys. 2012 110 , 2413-2417
     doi.org/10.1080/00268976.2012.687466
  3. Neese, F.
     The ORCA program system
     WIRES Comput. Molec. Sci. 2012 2(1), 73-78
     doi.org/10.1002/wcms.81
  4. Izsak, R.; Neese, F.; Klopper, W.
     Robust fitting techniques in the chain of spheres approximation to the Fock exchange: The role of the complementary space
     J. Chem. Phys. 2013 139 , 
     doi.org/10.1063/1.4819264
  5. Neese, F.
     Software update: the ORCA program system, version 4.0
     WIRES Comput. Molec. Sci. 2018 8(1), 1-6
     doi.org/10.1002/wcms.1327
  6. Neese, F.; Wennmohs, F.; Becker, U.; Riplinger, C.
     The ORCA quantum chemistry program package
     J. Chem. Phys. 2020 152(22), 224108
     doi.org/10.1063/5.0004608
  7. Neese, F.
     Software update: The ORCA program system—Version 5.0
     WIRES Comput. Molec. Sci. 2022 12(1), e1606
     doi.org/10.1002/wcms.1606

List of optional additional citations

  1. Neese, F.
     Approximate second-order SCF convergence for spin unrestricted wavefunctions
     Chem. Phys. Lett. 2000 325(1-3), 93-98
     doi.org/10.1016/s0009-2614(00)00662-x

Timings for individual modules:

Sum of individual times          ...     1470.201 sec (=  24.503 min)
Startup calculation              ...       24.811 sec (=   0.414 min)   1.7 %
SCF iterations                   ...      539.383 sec (=   8.990 min)  36.7 %
Property integrals               ...      116.382 sec (=   1.940 min)   7.9 %
SCF Response                     ...       77.510 sec (=   1.292 min)   5.3 %
Property calculations            ...      343.796 sec (=   5.730 min)  23.4 %
SCF Gradient evaluation          ...      368.219 sec (=   6.137 min)  25.0 %
Geometry relaxation              ...        0.100 sec (=   0.002 min)   0.0 %
                             ****ORCA TERMINATED NORMALLY****
TOTAL RUN TIME: 0 days 0 hours 24 minutes 32 seconds 641 msec
