
                                 *****************
                                 * O   R   C   A *
                                 *****************

                                            #,                                       
                                            ###                                      
                                            ####                                     
                                            #####                                    
                                            ######                                   
                                           ########,                                 
                                     ,,################,,,,,                         
                               ,,#################################,,                 
                          ,,##########################################,,             
                       ,#########################################, ''#####,          
                    ,#############################################,,   '####,        
                  ,##################################################,,,,####,       
                ,###########''''           ''''###############################       
              ,#####''   ,,,,##########,,,,          '''####'''          '####       
            ,##' ,,,,###########################,,,                        '##       
           ' ,,###''''                  '''############,,,                           
         ,,##''                                '''############,,,,        ,,,,,,###''
      ,#''                                            '''#######################'''  
     '                                                          ''''####''''         
             ,#######,   #######,   ,#######,      ##                                
            ,#'     '#,  ##    ##  ,#'     '#,    #''#        ,####,    ,#,          
            ##       ##  ##   ,#'  ##            #'  '#       #'       ,# #          
            ##       ##  #######   ##           ,######,      #####,      #          
            '#,     ,#'  ##    ##  '#,     ,#' ,#      #,     #,   #      #          
             '#######'   ##     ##  '#######'  #'      '#     '####' #    #          



                #########################################################
                #                        -***-                          #
                #          Department of theory and spectroscopy        #
                #                                                       #
                #                      Frank Neese                      #
                #                                                       #
                #     Directorship, Architecture, Infrastructure        #
                #                    SHARK, DRIVERS                     #
                #        Core code/Algorithms in most modules           #
                #                                                       #
                #        Max Planck Institute fuer Kohlenforschung      #
                #                Kaiser Wilhelm Platz 1                 #
                #                 D-45470 Muelheim/Ruhr                 #
                #                      Germany                          #
                #                                                       #
                #                  All rights reserved                  #
                #                        -***-                          #
                #########################################################


                         Program Version 6.1.1  -  RELEASE   -
                                (GIT: $487d211c$)
                          ($2025-11-21 10:33:24 +0100$)


 With contributions from (in alphabetic order):
[Max-Planck-Institut fuer Kohlenforschung]                               
  Daniel Aravena         : Magnetic Suceptibility                        
  Michael Atanasov       : Ab Initio Ligand Field Theory (pilot matlab implementation)
  Alexander A. Auer      : GIAO ZORA, VPT2 properties, NMR spectrum      
  Ute Becker             : All parallelization in ORCA, NUMFREQ, NUMCALC 
  Giovanni Bistoni       : ED, misc. LED, open-shell LED, HFLD           
  Dmytro Bykov           : pre 5.0 version of the SCF Hessian            
  Marcos Casanova-Páez   : Triplet and SCS-CIS(D). UHF-(DLPNO)-IP/EA/STEOM-CCSD. UHF-CVS-IP/STEOM-CCSD   
  Vijay G. Chilkuri      : MRCI spin determinant printing, contributions to CSF-ICE 
  Pauline Colinet        : FMM embedding                                 
  Dipayan Datta          : RHF DLPNO-CCSD density                        
  Achintya Kumar Dutta   : EOM-CC, STEOM-CC                              
  Nicolas Foglia         : Exact transition moments, OPA infrastructure, MCD improvements    
  Dmitry Ganyushin       : Spin-Orbit,Spin-Spin,Magnetic field MRCI      
  Miquel Garcia-Rates    : C-PCM and meta-GGA Hessian, CCSD/C-PCM, Gaussian charge scheme 
  Tiago L. C. Gouveia    : GS-ROHF, GS-ROCIS                             
  Yang Guo               : DLPNO-NEVPT2, F12-NEVPT2, CIM, IAO-localization        
  Andreas Hansen         : Spin unrestricted coupled pair/coupled cluster methods 
  Ingolf Harden          : AUTO-CI MPn and infrastructure                
  Benjamin Helmich-Paris : MC-RPA, TRAH-(SCF,CASSCF), AVAS, COSX integrals, SCF dyn. polar., MC-PDFT, srDFT 
  Lee Huntington         : MR-EOM, pCC                                   
  Robert Izsak           : Overlap fitted RIJCOSX, COSX-SCS-MP3, EOM     
  Riya Kayal             : Wick's Theorem for AUTO-CI, AUTO-CI UHF-CCSDT 
  Emily Kempfer          : AUTO-CI RHF CISDT and CCSDT, approximate NEVPT4
  Christian Kollmar      : KDIIS, OOCD, Brueckner-CCSD(T), CCSD density, CASPT2, CASPT2-K, improved NEVPT2 
  Axel Koslowski         : Symmetry handling                             
  Simone Kossmann        : meta-GGA functionals, TD-DFT gradient, OOMP2, (MP2 Hessian; deprecated post 5.0) 
  Lucas Lang             : DCDCAS, Hyperfine gauge corrections, ICE-SOC+SSC
  Marvin Lechner         : AUTO-CI (C++ implementation), FIC-MRCC        
  Spencer Leger          : CASSCF response                               
  Dagmar Lenk            : GEPOL surface, SMD, ORCA-2-JSON               
  Dimitrios Liakos       : Extrapolation schemes; Compound Job, Property file
  Dimitrios Manganas     : Further ROCIS development; embedding schemes. LFT, Crystal Embedding 
  Dimitrios Pantazis     : SARC Basis sets                               
  Anastasios Papadopoulos: AUTO-CI, single reference methods and gradients 
  Taras Petrenko         : pre 6.0 DFT Hessian and TD-DFT gradient,  ECA, NRVS 
  Petra Pikulova         : Analytic Raman intensities                    
  Peter Pinski           : DLPNO-MP2, DLPNO-MP2 Gradient                 
  Shashank Vittal Rao    : ES-AILFT, MagRelax                            
  Christoph Reimann      : Effective Core Potentials                     
  Marius Retegan         : Local ZFS, SOC                                
  Christoph Riplinger    : Optimizer, TS searches, QM/MM, DLPNO-CCSD(T), (RO)-DLPNO pert. Triples 
  Michael Roemelt        : Original ROCIS implementation, recursive CI coupling coefficients
  Masaaki Saitow         : Open-shell DLPNO-CCSD energy and density      
  Barbara Sandhoefer     : DKH picture change effects                    
  Yorick L. A. Schmerwitz: GMF and freeze-and-release deltaSCF, NEB S-IDPP initial path                    
  Kantharuban Sivalingam : CASSCF convergence/infrastructure, NEVPT2, NEVPT3, NEVPT4(SD), FIC-MRCI and CEPA variants
  Bernardo de Souza      : ESD, SOC TD-DFT                               
  Georgi L. Stoychev     : AutoAux, RI-MP2 NMR, DLPNO-MP2 response, X2C  
  Van Anh Tran           : RI-MP2 g-tensors                              
  Willem Van den Heuvel  : Paramagnetic NMR                              
  Zikuan Wang            : NOTCH, Electric field optimization            
  Frank Wennmohs         : Technical directorship and infrastructure     
  Hang Xu                : AUTO-CI-Response properties                   
                                                                         
[FACCTs GmbH]                                                            
  Markus Bursch, Nicolas Foglia, Miquel Garcia-Rates, Ingolf Harden, Hagen Neugebauer, Anastasios Papadopoulos, 
  Christoph Riplinger, Bernardo de Souza, Georgi L. Stoychev                                                    
                                                                 
  APM, various basis sets, CI-OPT, improved COSX, DLPNO-Multilevel,           
  DOCKER, DRACO, updates on ESD, Fragmentator, GOAT, IRC, LR-CPCM, L-BFGS, MBIS, meta-GGA TD-DFT gradient, ML-optimized integration grids, 
  MM, NACMEs, nearIR, NEB, NEB-TS, NL-DFT gradient (VV10), 2- and 3-layer-ONIOM, interface openCOSMO-RS, QMMM,   
  Crystal-QMMM, RESP, rigid body optimization, SF, symmetry and pop. for TD-DFT, various functionals, SOLVATOR                                   
                                                                         
[Other institutions]                                                     
  V. Asgeirsson          : NEB                                           
  Christoph Bannwarth    : sTDA-DFT, sTD-DFT, PBEh-3c, B97-3c, D3        
  Giovanni Bistoni       : ETS/NOCV, ADLD/ADEX, COVALED                  
  Martin Brehm           : Molecular dynamics                            
  Ronald Cardenas        : ETS/NOCV                                      
  Martina Colucci        : COVALED                                       
  Sebastian Ehlert       : rSCAN, r2SCAN, r2SCAN-3c, D4, dhf basis sets  
  Marvin Friede          : D4 for Fr, Ra, Ac-Lr                          
  Lars Goerigk           : TD-DFT with DH, B97 family of functionals     
  Stefan Grimme          : VdW corrections, initial TS optimization, DFT functionals, gCP, sTDA/sTD-DF 
  Waldemar Hujo          : DFT-NL                                        
  H. Jonsson             : NEB                                           
  Holger Kruse           : gCP                                           
  Marcel Mueller         : wB97X-3c, vDZP basis set                      
  Hagen Neugebauer       : wr2SCAN, Native XTB                           
  Gianluca Regni         : ADLD/ADEX                                     
  Tobias Risthaus        : pre 6.0 range-separated hybrid DFT and stability analysis
  Lukas Wittmann         : regularized MP2, r2SCAN double-hybrids, wr2SCAN        
                                                                         
We gratefully acknowledge several colleagues who have allowed us to      
interface, adapt or use parts of their codes:                            
  Ed Valeev, F. Pavosevic, A. Kumar             : LibInt (2-el integral package), F12 methods 
  Garnet Chan, S. Sharma, J. Yang, R. Olivares  : DMRG                   
  Ulf Ekstrom                                   : XCFun DFT Library      
  Mihaly Kallay                                 : mrcc  (arbitrary order and MRCC methods)
  Frank Weinhold                                : gennbo (NPA and NBO analysis)           
  Simon Mueller                                 : openCOSMO-RS                            
  Christopher J. Cramer and Donald G. Truhlar   : smd solvation model                     
  S Lehtola, MJT Oliveira, MAL Marques          : LibXC Library                           
  Liviu Ungur et al                             : ANISO software                          


 Your calculation uses the libint2 library for the computation of 2-el integrals
 For citations please refer to: http://libint.valeyev.net

 Your ORCA version has been built with support for libXC version: 7.0.0
 For citations please refer to: https://libxc.gitlab.io

 This ORCA versions uses:
   CBLAS   interface :  Fast vector & matrix operations
   LAPACKE interface :  Fast linear algebra routines
   SCALAPACK package :  Parallel linear algebra routines
   Shared memory     :  Shared parallel matrices
   BLAS/LAPACK       :  OpenBLAS 0.3.29  USE64BITINT DYNAMIC_ARCH NO_AFFINITY Cooperlake SINGLE_THREADED
        Core in use  :  Cooperlake
   Copyright (c) 2011-2014, The OpenBLAS Project


  ***********************************
  * Starting time: Mon Feb 16 16:48:02 2026
  * Host name:     Breado
  * Process ID:    1742
  * Working dir.:  /home/bread/other_data/B3LYP_6-31Gd
  ***********************************

Warning: RI is on but no J-basis has been assigned. Assigning Def2/J (nothing to worry about!)
================================================================================

----- Orbital basis set information -----
Your calculation utilizes the basis: 6-31G(d)
   H-He, Li-Ne : W. J. Hehre, R. Ditchfield and J.A. Pople, J. Chem. Phys. 56, 2257 (1972).
                 Note: He and Ne are unpublished basis sets taken from the Gaussian program.
                 Note: Li and B from J. D. Dill and J. A. Pople, J. Chem. Phys. 62, 2921 (1975).
   Na - Ar     : M. M. Francl, W. J. Pietro, W. J. Hehre, J. S. Binkley, M. S. Gordon, 
                 D. J. DeFrees and J. A. Pople, J. Chem. Phys. 77, 3654 (1982).
   K - Zn      : V. A. Rassolov, J. A. Pople, M. A. Ratner, and T. L. Windus, J. Chem. Phys. 109, 1223 (1998).

----- AuxJ basis set information -----
Your calculation utilizes the auxiliary basis: def2/J
   H-Rn: F. Weigend, Phys. Chem. Chem. Phys. 8, 1057 (2006).
   Fr-Lr: K. Eichkorn, F. Weigend, O. Treutler, R. Ahlrichs; Theor. Chem. Acc. 97, 119 (1997).

================================================================================
                                        WARNINGS
                       Please study these warnings very carefully!
================================================================================


WARNING: Geometry Optimization
  ===> : Switching off AutoStart
         For restart on a previous wavefunction, please use MOREAD

================================================================================
                                       INPUT FILE
================================================================================
NAME = HFE_347pcf2_gauche1.inp
|  1> # avogadro generated ORCA input file 
|  2> # Basic Mode
|  3> # 
|  4> ! B3LYP 6-31G(d) OPT FREQ 
|  5> % FREQ TEMP 305, 320, 340 END
|  6> 
|  7> * xyz 0 1
|  8>    F        2.03360        0.95850       -1.19810
|  9>    F        1.40780        1.54460        0.81840
| 10>    F        3.14700       -0.57680        0.75040
| 11>    F        1.78880       -1.67110       -0.55230
| 12>    F       -2.75120        1.05380       -0.44060
| 13>    F       -3.13920       -0.46580        1.07550
| 14>    F       -2.38540       -1.04850       -0.89120
| 15>    O       -0.05490        0.42730       -0.50780
| 16>    C        1.30530        0.57550       -0.12160
| 17>    C       -0.88930        0.03820        0.57430
| 18>    C        1.84110       -0.72430        0.41630
| 19>    C       -2.30350       -0.11120        0.07660
| 20>    H       -0.85070        0.79020        1.36930
| 21>    H       -0.60420       -0.93450        0.98000
| 22>    H        1.34190       -1.10100        1.30910
| 23> *
| 24> 
| 25> 
| 26>                          ****END OF INPUT****
================================================================================

                       *****************************
                       * Geometry Optimization Run *
                       *****************************

Geometry optimization settings:
Update method            Update   .... BFGS
Choice of coordinates    CoordSys .... (2022) Redundant Internals
Initial Hessian          InHess   .... Almloef's Model
Max. no of cycles        MaxIter  .... 50

Convergence Tolerances:
Energy Change            TolE     ....  5.0000e-06 Eh
Max. Gradient            TolMAXG  ....  3.0000e-04 Eh/bohr
RMS Gradient             TolRMSG  ....  1.0000e-04 Eh/bohr
Max. Displacement        TolMAXD  ....  4.0000e-03 bohr
RMS Displacement         TolRMSD  ....  2.0000e-03 bohr
Strict Convergence                .... False

------------------------------------------------------------------------------
                        ORCA OPTIMIZATION COORDINATE SETUP
------------------------------------------------------------------------------

The optimization will be done in redundant internal coordinates (2022)
Making redundant internal coordinates   ...  (2022 redundants) done
Evaluating the initial hessian          ...  (Almloef) done
Evaluating the coordinates              ...  done
Calculating the B-matrix                .... done
Calculating the G-matrix                .... done
The number of degrees of freedom        ....   57

    -----------------------------------------------------------------
                    Redundant Internal Coordinates


    -----------------------------------------------------------------
         Definition                    Initial Value    Approx d2E/dq
    -----------------------------------------------------------------
      1. B(C   8,F   1)                  1.3540         0.593519   
      2. B(C   8,O   7)                  1.4217         0.498064   
      3. B(C   8,F   0)                  1.3550         0.591349   
      4. B(C   9,O   7)                  1.4208         0.499802   
      5. B(C  10,F   3)                  1.3555         0.590237   
      6. B(C  10,C   8)                  1.5053         0.409073   
      7. B(C  10,F   2)                  1.3560         0.589116   
      8. B(C  11,F   6)                  1.3498         0.602772   
      9. B(C  11,F   5)                  1.3498         0.602722   
     10. B(C  11,C   9)                  1.5066         0.407038   
     11. B(C  11,F   4)                  1.3510         0.600088   
     12. B(H  12,C   9)                  1.0950         0.353550   
     13. B(H  13,C   9)                  1.0918         0.357731   
     14. B(H  14,C  10)                  1.0900         0.360042   
     15. A(C   8,O   7,C   9)          112.5529         0.396621   
     16. A(F   1,C   8,C  10)          110.0601         0.395702   
     17. A(F   1,C   8,O   7)          109.6106         0.407036   
     18. A(O   7,C   8,C  10)          110.3408         0.385424   
     19. A(F   0,C   8,C  10)          109.6731         0.395448   
     20. A(F   0,C   8,F   1)          107.9727         0.417791   
     21. A(F   0,C   8,O   7)          109.1410         0.406773   
     22. A(H  12,C   9,H  13)          109.4422         0.289702   
     23. A(C  11,C   9,H  13)          106.2311         0.328574   
     24. A(O   7,C   9,H  13)          111.9409         0.337905   
     25. A(C  11,C   9,H  12)          109.9391         0.327938   
     26. A(O   7,C   9,H  12)          110.1320         0.337243   
     27. A(O   7,C   9,C  11)          109.0757         0.385323   
     28. A(F   3,C  10,H  14)          109.0393         0.346384   
     29. A(F   2,C  10,H  14)          106.0711         0.346274   
     30. A(F   2,C  10,F   3)          106.8099         0.417097   
     31. A(F   3,C  10,C   8)          109.5154         0.395317   
     32. A(C   8,C  10,H  14)          115.3455         0.329195   
     33. A(F   2,C  10,C   8)          109.6887         0.395186   
     34. A(F   4,C  11,C   9)          110.6102         0.396120   
     35. A(F   5,C  11,F   6)          108.0967         0.420370   
     36. A(F   4,C  11,F   6)          107.7110         0.420042   
     37. A(F   4,C  11,F   5)          107.7389         0.420035   
     38. A(F   6,C  11,C   9)          111.2641         0.396430   
     39. A(F   5,C  11,C   9)          111.2680         0.396425   
     40. D(F   1,C   8,O   7,C   9)    -61.3572         0.019607   
     41. D(F   0,C   8,O   7,C   9)   -179.4173         0.019607   
     42. D(C  10,C   8,O   7,C   9)     60.0038         0.019607   
     43. D(H  13,C   9,O   7,C   8)    -62.0724         0.019748   
     44. D(H  12,C   9,O   7,C   8)     59.9242         0.019748   
     45. D(C  11,C   9,O   7,C   8)   -179.3399         0.019748   
     46. D(F   2,C  10,C   8,F   0)     58.2858         0.013258   
     47. D(F   3,C  10,C   8,O   7)     61.6286         0.013258   
     48. D(F   3,C  10,C   8,F   1)   -177.2779         0.013258   
     49. D(F   3,C  10,C   8,F   0)    -58.6311         0.013258   
     50. D(F   2,C  10,C   8,O   7)    178.5455         0.013258   
     51. D(F   2,C  10,C   8,F   1)    -60.3609         0.013258   
     52. D(F   4,C  11,C   9,H  13)    179.6130         0.013130   
     53. D(F   4,C  11,C   9,H  12)     61.2936         0.013130   
     54. D(F   4,C  11,C   9,O   7)    -59.5604         0.013130   
     55. D(F   5,C  11,C   9,H  13)     59.8979         0.013130   
     56. D(F   5,C  11,C   9,H  12)    -58.4215         0.013130   
     57. D(F   5,C  11,C   9,O   7)   -179.2756         0.013130   
    -----------------------------------------------------------------

Number of atoms                         .... 15
Number of degrees of freedom            .... 57


         *************************************************************
         *                GEOMETRY OPTIMIZATION CYCLE   1            *
         *************************************************************
---------------------------------
CARTESIAN COORDINATES (ANGSTROEM)
---------------------------------
  F      2.033600    0.958500   -1.198100
  F      1.407800    1.544600    0.818400
  F      3.147000   -0.576800    0.750400
  F      1.788800   -1.671100   -0.552300
  F     -2.751200    1.053800   -0.440600
  F     -3.139200   -0.465800    1.075500
  F     -2.385400   -1.048500   -0.891200
  O     -0.054900    0.427300   -0.507800
  C      1.305300    0.575500   -0.121600
  C     -0.889300    0.038200    0.574300
  C      1.841100   -0.724300    0.416300
  C     -2.303500   -0.111200    0.076600
  H     -0.850700    0.790200    1.369300
  H     -0.604200   -0.934500    0.980000
  H      1.341900   -1.101000    1.309100

----------------------------
CARTESIAN COORDINATES (A.U.)
----------------------------
  NO LB      ZA    FRAG     MASS         X           Y           Z
   0 F     9.0000    0    18.998    3.842947    1.811302   -2.264081
   1 F     9.0000    0    18.998    2.660356    2.918871    1.546552
   2 F     9.0000    0    18.998    5.946968   -1.089994    1.418050
   3 F     9.0000    0    18.998    3.380342   -3.157921   -1.043696
   4 F     9.0000    0    18.998   -5.199015    1.991393   -0.832613
   5 F     9.0000    0    18.998   -5.932228   -0.880234    2.032400
   6 F     9.0000    0    18.998   -4.507753   -1.981378   -1.684124
   7 O     8.0000    0    15.999   -0.103746    0.807480   -0.959603
   8 C     6.0000    0    12.011    2.466660    1.087537   -0.229791
   9 C     6.0000    0    12.011   -1.680533    0.072188    1.085270
  10 C     6.0000    0    12.011    3.479175   -1.368729    0.786693
  11 C     6.0000    0    12.011   -4.352984   -0.210138    0.144753
  12 H     1.0000    0     1.008   -1.607590    1.493262    2.587602
  13 H     1.0000    0     1.008   -1.141773   -1.765949    1.851932
  14 H     1.0000    0     1.008    2.535823   -2.080588    2.473840

--------------------------------
INTERNAL COORDINATES (ANGSTROEM)
--------------------------------
 F      0   0   0     0.000000000000     0.00000000     0.00000000
 F      1   0   0     2.191212244398     0.00000000     0.00000000
 F      1   2   0     2.719091373970    66.95269226     0.00000000
 F      3   1   2     2.176976577733    66.39338032   114.53912106
 F      2   1   3     4.373013450700    88.66211289   235.33513761
 F      5   2   1     2.181349896280    92.70835785   120.39000474
 F      5   2   1     2.180943669607    90.46710442    60.27552537
 O      1   2   3     2.262856553120    61.21437214   105.48298545
 C      2   1   3     1.353979711813    36.02899012   290.80489025
 C      8   1   2     1.420761267772   146.99999123   325.10918997
 C      4   3   1     1.355489391327    36.60314589   290.12731330
 C      7   5   2     1.349768772790    36.16333255    55.34989779
 H     10   8   1     1.094997242006   110.13203910    59.31889680
 H     10   8   1     1.091796588198   111.94085263   297.32238297
 H     11   4   3     1.090043746829   109.03927371   245.78398568

---------------------------
INTERNAL COORDINATES (A.U.)
---------------------------
 F      0   0   0     0.000000000000     0.00000000     0.00000000
 F      1   0   0     4.140791043207     0.00000000     0.00000000
 F      1   2   0     5.138338029912    66.95269226     0.00000000
 F      3   1   2     4.113889531877    66.39338032   114.53912106
 F      2   1   3     8.263797801776    88.66211289   235.33513761
 F      5   2   1     4.122153906226    92.70835785   120.39000474
 F      5   2   1     4.121386249067    90.46710442    60.27552537
 O      1   2   3     4.276179165747    61.21437214   105.48298545
 C      2   1   3     2.558650846211    36.02899012   290.80489025
 C      8   1   2     2.684849697771   146.99999123   325.10918997
 C      4   3   1     2.561503727044    36.60314589   290.12731330
 C      7   5   2     2.550693324693    36.16333255    55.34989779
 H     10   8   1     2.069244904790   110.13203910    59.31889680
 H     10   8   1     2.063196545643   111.94085263   297.32238297
 H     11   4   3     2.059884155499   109.03927371   245.78398568

---------------------
BASIS SET INFORMATION
---------------------
There are 4 groups of distinct atoms

 Group   1 Type F   : 10s4p1d contracted to 3s2p1d pattern {631/31/1}
 Group   2 Type O   : 10s4p1d contracted to 3s2p1d pattern {631/31/1}
 Group   3 Type C   : 10s4p1d contracted to 3s2p1d pattern {631/31/1}
 Group   4 Type H   : 4s contracted to 2s pattern {31}

Atom   0F    basis set group =>   1
Atom   1F    basis set group =>   1
Atom   2F    basis set group =>   1
Atom   3F    basis set group =>   1
Atom   4F    basis set group =>   1
Atom   5F    basis set group =>   1
Atom   6F    basis set group =>   1
Atom   7O    basis set group =>   2
Atom   8C    basis set group =>   3
Atom   9C    basis set group =>   3
Atom  10C    basis set group =>   3
Atom  11C    basis set group =>   3
Atom  12H    basis set group =>   4
Atom  13H    basis set group =>   4
Atom  14H    basis set group =>   4
---------------------------------
AUXILIARY/J BASIS SET INFORMATION
---------------------------------
There are 4 groups of distinct atoms

 Group   1 Type F   : 12s5p4d2f1g contracted to 6s4p3d1f1g pattern {711111/2111/211/2/1}
 Group   2 Type O   : 12s5p4d2f1g contracted to 6s4p3d1f1g pattern {711111/2111/211/2/1}
 Group   3 Type C   : 12s5p4d2f1g contracted to 6s4p3d1f1g pattern {711111/2111/211/2/1}
 Group   4 Type H   : 5s2p1d contracted to 3s1p1d pattern {311/2/1}

Atom   0F    basis set group =>   1
Atom   1F    basis set group =>   1
Atom   2F    basis set group =>   1
Atom   3F    basis set group =>   1
Atom   4F    basis set group =>   1
Atom   5F    basis set group =>   1
Atom   6F    basis set group =>   1
Atom   7O    basis set group =>   2
Atom   8C    basis set group =>   3
Atom   9C    basis set group =>   3
Atom  10C    basis set group =>   3
Atom  11C    basis set group =>   3
Atom  12H    basis set group =>   4
Atom  13H    basis set group =>   4
Atom  14H    basis set group =>   4
------------------------------------------------------------------------------
                             ORCA STARTUP CALCULATIONS
                           -- RI-GTO INTEGRALS CHOSEN --
------------------------------------------------------------------------------
------------------------------------------------------------------------------
                   ___                                                        
                  /   \      - P O W E R E D   B Y -                         
                 /     \                                                     
                 |  |  |   _    _      __       _____    __    __             
                 |  |  |  | |  | |    /  \     |  _  \  |  |  /  |          
                  \  \/   | |  | |   /    \    | | | |  |  | /  /          
                 / \  \   | |__| |  /  /\  \   | |_| |  |  |/  /          
                |  |  |   |  __  | /  /__\  \  |    /   |      \           
                |  |  |   | |  | | |   __   |  |    \   |  |\   \          
                \     /   | |  | | |  |  |  |  | |\  \  |  | \   \       
                 \___/    |_|  |_| |__|  |__|  |_| \__\ |__|  \__/        
                                                                              
                      - O R C A' S   B I G   F R I E N D -                    
                                      &                                       
                       - I N T E G R A L  F E E D E R -                       
                                                                              
 v1 FN, 2020, v2 2021, v3 2022-2024                                           
------------------------------------------------------------------------------


----------------------
SHARK INTEGRAL PACKAGE
----------------------

Number of atoms                             ...     15
Number of basis functions                   ...    174
Number of shells                            ...     78
Maximum angular momentum                    ...      2
Integral batch strategy                     ... SHARK/LIBINT Hybrid
RI-J (if used) integral strategy            ... SPLIT-RIJ (Revised 2003 algorithm where possible)
Printlevel                                  ...      1
Contraction scheme used                     ... SEGMENTED contraction
Prescreening option                         ... SCHWARTZ
   Thresh                                   ... 2.500e-11
   Tcut                                     ... 2.500e-12
   Tpresel                                  ... 2.500e-12 
Coulomb Range Separation                    ... NOT USED
Exchange Range Separation                   ... NOT USED
Multipole approximations                    ... NOT USED
Finite Nucleus Model                        ... NOT USED
CABS basis                                  ... NOT available
Auxiliary Coulomb fitting basis             ... AVAILABLE
   # of basis functions in Aux-J            ...    621
   # of shells in Aux-J                     ...    195
   Maximum angular momentum in Aux-J        ...      4
Auxiliary J/K fitting basis                 ... NOT available
Auxiliary Correlation fitting basis         ... NOT available
Auxiliary 'external' fitting basis          ... NOT available

Checking pre-screening integrals            ... done (  0.0 sec) Dimension = 78
   => SHARK Basis and OBASIS are compatible. Storing Pre-screening
Shell pair information
Shell pair cut-off parameter TPreSel        ...   2.5e-12
Total number of shell pairs                 ...      3081
Shell pairs after pre-screening             ...      2570
Total number of primitive shell pairs       ...     18789
Primitive shell pairs kept                  ...      9365
          la=0 lb=0:    714 shell pairs
          la=1 lb=0:    860 shell pairs
          la=1 lb=1:    275 shell pairs
          la=2 lb=0:    403 shell pairs
          la=2 lb=1:    252 shell pairs
          la=2 lb=2:     66 shell pairs

Checking whether 4 symmetric matrices of dimension 174 fit in memory
:Max Core in MB      =   4096.00
 MB in use           =      7.09
 MB left             =   4088.91
 MB needed           =      0.46
 Data fit in memory  = YES
Calculating RI/J V-Matrix + Cholesky decomp.... done (  0.1 sec)
Calculating Nuclear repulsion               ... done (  0.0 sec) ENN=    847.814180921515 Eh

Diagonalization of the overlap matrix:
Smallest eigenvalue                        ... 3.045e-03
Time for diagonalization                   ...    0.004 sec
Threshold for overlap eigenvalues          ... 1.000e-07
Number of eigenvalues below threshold      ... 0
Time for construction of square roots      ...    0.002 sec
Total time needed                          ...    0.007 sec

-------------------
DFT GRID GENERATION
-------------------

General Integration Accuracy     IntAcc      ... 4.388
Radial Grid Type                 RadialGrid  ... OptM3 with GC (2021)
Angular Grid (max. ang.)         AngularGrid ... 4 (Lebedev-302)
Angular grid pruning method      GridPruning ... 4 (adaptive)
Weight generation scheme         WeightScheme... mBecke (2022)
Basis function cutoff            BFCut       ... 1.0000e-11
Integration weight cutoff        WCut        ... 1.0000e-14
Partially contracted basis set               ... off
Rotationally invariant grid construction     ... off
Angular grids for H and He will be reduced by one unit

Total number of grid points                  ...    82503
Total number of batches                      ...     1297
Average number of points per batch           ...       63
Average number of grid points per atom       ...     5500

--------------------
COSX GRID GENERATION
--------------------

GRIDX 1
-------
General Integration Accuracy     IntAcc      ... 3.816
Radial Grid Type                 RadialGrid  ... OptM3 with GC (2021)
Angular Grid (max. ang.)         AngularGrid ... 1 (Lebedev-50)
Angular grid pruning method      GridPruning ... 4 (adaptive)
Weight generation scheme         WeightScheme... mBecke (2022)
Basis function cutoff            BFCut       ... 1.0000e-11
Integration weight cutoff        WCut        ... 1.0000e-14
Partially contracted basis set               ... on
Rotationally invariant grid construction     ... off
Angular grids for H and He will be reduced by one unit

Total number of grid points                  ...    10397
Total number of batches                      ...       88
Average number of points per batch           ...      118
Average number of grid points per atom       ...      693
UseSFitting                                  ... on

GRIDX 2
-------
General Integration Accuracy     IntAcc      ... 4.020
Radial Grid Type                 RadialGrid  ... OptM3 with GC (2021)
Angular Grid (max. ang.)         AngularGrid ... 2 (Lebedev-110)
Angular grid pruning method      GridPruning ... 4 (adaptive)
Weight generation scheme         WeightScheme... mBecke (2022)
Basis function cutoff            BFCut       ... 1.0000e-11
Integration weight cutoff        WCut        ... 1.0000e-14
Partially contracted basis set               ... on
Rotationally invariant grid construction     ... off
Angular grids for H and He will be reduced by one unit

Total number of grid points                  ...    24114
Total number of batches                      ...      196
Average number of points per batch           ...      123
Average number of grid points per atom       ...     1608
UseSFitting                                  ... on

GRIDX 3
-------
General Integration Accuracy     IntAcc      ... 4.338
Radial Grid Type                 RadialGrid  ... OptM3 with GC (2021)
Angular Grid (max. ang.)         AngularGrid ... 3 (Lebedev-194)
Angular grid pruning method      GridPruning ... 4 (adaptive)
Weight generation scheme         WeightScheme... mBecke (2022)
Basis function cutoff            BFCut       ... 1.0000e-11
Integration weight cutoff        WCut        ... 1.0000e-14
Partially contracted basis set               ... on
Rotationally invariant grid construction     ... off
Angular grids for H and He will be reduced by one unit

Total number of grid points                  ...    53457
Total number of batches                      ...      426
Average number of points per batch           ...      125
Average number of grid points per atom       ...     3564
UseSFitting                                  ... on
Grids setup in   1.8 sec
Initializing property integral containers    ... done (  0.0 sec)

SHARK setup successfully completed in   2.1 seconds

Maximum memory used throughout the entire STARTUP-calculation: 33.8 MB
-------------------------------------------------------------------------------
                                 ORCA GUESS
                   Start orbitals & Density for SCF / CASSCF
-------------------------------------------------------------------------------

------------
SCF SETTINGS
------------
Hamiltonian:
 Density Functional     Method          .... DFT(GTOs)
 Exchange Functional    Exchange        .... B88
   X-Alpha parameter    XAlpha          ....  0.666667
   Becke's b parameter  XBeta           ....  0.004200
 Correlation Functional Correlation     .... LYP
 LDA part of GGA corr.  LDAOpt          .... VWN-5
 Gradients option       PostSCFGGA      .... off
 Hybrid DFT is turned on
   Fraction HF Exchange ScalHFX         ....  0.200000
   Scaling of DF-GGA-X  ScalDFX         ....  0.720000
   Scaling of DF-GGA-C  ScalDFC         ....  0.810000
   Scaling of DF-LDA-C  ScalLDAC        ....  1.000000
   Perturbative correction              ....  0.000000
   NL short-range parameter             ....  4.800000
 RI-approximation to the Coulomb term is turned on
   Number of AuxJ basis functions       .... 621
   RIJ-COSX (HFX calculated with COS-X)).... on


General Settings:
 Integral files         IntName         .... HFE_347pcf2_gauche1
 Hartree-Fock type      HFTyp           .... RHF
 Total Charge           Charge          ....    0
 Multiplicity           Mult            ....    1
 Number of Electrons    NEL             ....   98
 Basis Dimension        Dim             ....  174
 Nuclear Repulsion      ENuc            ....    847.8141809215 Eh

Convergence Acceleration:
 AO-DIIS                CNVDIIS         .... on
   Start iteration      DIISMaxIt       ....    12
   Startup error        DIISStart       ....  0.200000
   # of expansion vecs  DIISMaxEq       ....     5
   Bias factor          DIISBfac        ....   1.050
   Max. coefficient     DIISMaxC        ....  10.000
 MO-DIIS                CNVKDIIS        .... off
 Trust-Rad. Augm. Hess. CNVTRAH         .... auto
   Auto Start mean grad. ratio tolernc. ....  1.125000
   Auto Start start iteration           ....    50
   Auto Start num. interpolation iter.  ....    10
   Max. Number of Micro iterations      ....    24
   Max. Number of Macro iterations      .... Maxiter - #DIIS iter
   Number of Davidson start vectors     ....     2
   Converg. threshold    (grad. norm)   ....   1.000e-05
   Grad. Scal. Fac. for Micro threshold ....   0.100
   Minimum threshold for Micro iter.    ....   1.000e-02
   NR start threshold (gradient norm)   ....   1.000e-04
   Initial trust radius                 ....   0.400
   Minimum AH scaling param. (alpha)    ....   1.000
   Maximum AH scaling param. (alpha)    .... 1000.000
   Quad. conv. algorithm                .... NR
   White noise on init. David. guess    .... on
   Maximum white noise                  ....   0.010
   Pseudo random numbers                .... off
   Inactive MOs                         .... canonical
   Orbital update algorithm             .... Taylor
   Preconditioner                       .... Diag
   Full preconditioner red. dimension   ....   250
 SOSCF                 CNVSOSCF           .... on
   Start iteration     SOSCFMaxIt         ....   150
   Startup grad/error  SOSCFStart         ....  0.003300
   Hessian update      SOSCFHessUp        .... L-BFGS
   Autom. constraints  SOSCFAutoConstrain .... off
 Level Shifting         CNVShift        .... on
   Level shift para.    LevelShift      ....    0.2500
   Turn off err/grad.   ShiftErr        ....    0.0010
 Zerner damping         CNVZerner       .... off
 Static damping         CNVDamp         .... on
   Fraction old density DampFac         ....    0.7000
   Max. Damping (<1)    DampMax         ....    0.9800
   Min. Damping (>=0)   DampMin         ....    0.0000
   Turn off err/grad.   DampErr         ....    0.1000

SCF Procedure:
 Maximum # iterations   MaxIter         ....   125
 SCF integral mode      SCFMode         .... Direct
   Integral package                     .... SHARK and LIBINT hybrid scheme
 Reset frequency        DirectResetFreq ....    20
 Integral Threshold     Thresh          ....  2.500e-11 Eh
 Primitive CutOff       TCut            ....  2.500e-12 Eh

Convergence Tolerance:
 Convergence Check Mode ConvCheckMode   .... Total+1el-Energy
 Convergence forced     ConvForced      .... 0
 Energy Change          TolE            ....  1.000e-08 Eh
 1-El. energy change                    ....  1.000e-05 Eh
 Orbital Gradient       TolG            ....  1.000e-05
 Orbital Rotation angle TolX            ....  1.000e-05
 DIIS Error             TolErr          ....  5.000e-07

------------------------------
INITIAL GUESS: MODEL POTENTIAL
------------------------------
Loading Hartree-Fock densities                     ... done
Calculating cut-offs                               ... done
Initializing the effective Hamiltonian             ... done
Setting up the integral package (SHARK)            ... done
Starting the Coulomb interaction                   ... done (   0.2 sec)
Making the grid                                    ... done (   0.3 sec)
Mapping shells                                     ... done
Starting the XC term evaluation                    ... done (   0.2 sec)
  promolecular density results
     # of electrons  =     98.000333032
     EX              =   -100.074939290
     EC              =     -3.644419031
     EX+EC           =   -103.719358322
Transforming the Hamiltonian                       ... done (   0.0 sec)
Diagonalizing the Hamiltonian                      ... done (   0.0 sec)
Back transforming the eigenvectors                 ... done (   0.0 sec)
Now organizing SCF variables                       ... done
                      ------------------
                      INITIAL GUESS DONE (   0.7 sec)
                      ------------------
             **** ENERGY FILE WAS UPDATED (HFE_347pcf2_gauche1.en.tmp) ****
Finished Guess after   0.8 sec
Maximum memory used throughout the entire GUESS-calculation: 12.2 MB

-------------------------------------------------------------------------------------------
                                      ORCA LEAN-SCF
                              memory conserving SCF solver
-------------------------------------------------------------------------------------------

----------------------------------------D-I-I-S--------------------------------------------
Iteration    Energy (Eh)           Delta-E    RMSDP     MaxDP     DIISErr   Damp  Time(sec)
-------------------------------------------------------------------------------------------
               ***  Starting incremental Fock matrix formation  ***
    1    -927.7211836660761719     0.00e+00  2.65e-03  6.23e-02  2.03e-01  0.700   6.3
    2    -927.8250970697203002    -1.04e-01  1.46e-03  3.42e-02  7.99e-02  0.700   0.6
                               ***Turning on AO-DIIS***
    3    -927.8601391128223668    -3.50e-02  4.31e-04  1.11e-02  2.34e-02  0.700   3.0
    4    -927.8833804111396830    -2.32e-02  7.26e-04  1.61e-02  1.14e-02  0.000   2.8
                              *** Initializing SOSCF ***
---------------------------------------S-O-S-C-F--------------------------------------
Iteration    Energy (Eh)           Delta-E    RMSDP     MaxDP     MaxGrad    Time(sec)
--------------------------------------------------------------------------------------
    5    -927.9366910573256746    -5.33e-02  1.47e-04  3.57e-03  2.81e-03     2.8
               *** Restarting incremental Fock matrix formation ***
    6    -927.9366882565037713     2.80e-06  5.83e-05  1.13e-03  2.50e-04     5.9
    7    -927.9366883669537174    -1.10e-07  2.79e-05  5.43e-04  2.35e-04     4.3
    8    -927.9366937464429839    -5.38e-06  8.22e-06  1.71e-04  5.82e-05     4.1
    9    -927.9366937952291892    -4.88e-08  3.99e-06  9.15e-05  4.41e-05     3.7
   10    -927.9366938931665345    -9.79e-08  1.64e-06  2.80e-05  9.56e-06     0.9
   11    -927.9366938926383455     5.28e-10  8.55e-07  1.99e-05  8.62e-06     3.1
                 **** Energy Check signals convergence ****

               *****************************************************
               *                     SUCCESS                       *
               *           SCF CONVERGED AFTER  11 CYCLES          *
               *****************************************************

Recomputing exchange energy using gridx3       ... done (   10.223 sec)
Old exchange energy                            :    -20.115889266 Eh
New exchange energy                            :    -20.115875879 Eh
Exchange energy change after final integration :      0.000013387 Eh
Total energy after final integration           :   -927.936680512 Eh
             **** ENERGY FILE WAS UPDATED (HFE_347pcf2_gauche1.en.tmp) ****

----------------
TOTAL SCF ENERGY
----------------

Total Energy       :       -927.93668051201951 Eh          -25250.44078 eV

Components:
Nuclear Repulsion  :        847.81418092151500 Eh           23070.19673 eV
Electronic Energy  :      -1775.75087482046843 Eh          -48320.63788 eV
One Electron Energy:      -2973.92717104095118 Eh          -80924.67245 eV
Two Electron Energy:       1198.17629622048275 Eh           32604.03458 eV

Virial components:
Potential Energy   :      -1851.49393241012376 Eh          -50381.71126 eV
Kinetic Energy     :        923.55725189810425 Eh           25131.27047 eV
Virial Ratio       :          2.00474191351420

DFT components:
N(Alpha)           :       48.999990225076 electrons
N(Beta)            :       48.999990225076 electrons
N(Total)           :       97.999980450151 electrons
E(X)               :      -80.077558961130 Eh       
E(C)               :       -4.262327199003 Eh       
E(XC)              :      -84.339886160133 Eh       

---------------
SCF CONVERGENCE
---------------

  Last Energy change         ...   -5.2819e-10  Tolerance :   1.0000e-08
  Last MAX-Density change    ...    1.9861e-05  Tolerance :   1.0000e-07
  Last RMS-Density change    ...    8.5533e-07  Tolerance :   5.0000e-09
  Last DIIS Error            ...    2.8110e-03  Tolerance :   5.0000e-07
  Last Orbital Gradient      ...    8.6197e-06  Tolerance :   1.0000e-05
  Last Orbital Rotation      ...    5.9998e-06  Tolerance :   1.0000e-05


----------------
ORBITAL ENERGIES
----------------

  NO   OCC          E(Eh)            E(eV) 
   0   2.0000     -24.738972      -673.1817 
   1   2.0000     -24.737284      -673.1357 
   2   2.0000     -24.734973      -673.0728 
   3   2.0000     -24.729175      -672.9151 
   4   2.0000     -24.726285      -672.8364 
   5   2.0000     -24.722003      -672.7199 
   6   2.0000     -24.718281      -672.6186 
   7   2.0000     -19.210797      -522.7524 
   8   2.0000     -10.445413      -284.2341 
   9   2.0000     -10.429701      -283.8066 
  10   2.0000     -10.370053      -282.1835 
  11   2.0000     -10.282078      -279.7896 
  12   2.0000      -1.313412       -35.7398 
  13   2.0000      -1.299060       -35.3492 
  14   2.0000      -1.269301       -34.5394 
  15   2.0000      -1.229575       -33.4584 
  16   2.0000      -1.229139       -33.4466 
  17   2.0000      -1.222851       -33.2755 
  18   2.0000      -1.211786       -32.9744 
  19   2.0000      -1.093440       -29.7540 
  20   2.0000      -0.816432       -22.2162 
  21   2.0000      -0.777190       -21.1484 
  22   2.0000      -0.690768       -18.7967 
  23   2.0000      -0.660097       -17.9621 
  24   2.0000      -0.615559       -16.7502 
  25   2.0000      -0.605394       -16.4736 
  26   2.0000      -0.601883       -16.3781 
  27   2.0000      -0.596015       -16.2184 
  28   2.0000      -0.581552       -15.8248 
  29   2.0000      -0.562240       -15.2993 
  30   2.0000      -0.555925       -15.1275 
  31   2.0000      -0.550657       -14.9841 
  32   2.0000      -0.502230       -13.6664 
  33   2.0000      -0.471975       -12.8431 
  34   2.0000      -0.467282       -12.7154 
  35   2.0000      -0.465173       -12.6580 
  36   2.0000      -0.456627       -12.4255 
  37   2.0000      -0.450205       -12.2507 
  38   2.0000      -0.435979       -11.8636 
  39   2.0000      -0.431040       -11.7292 
  40   2.0000      -0.429307       -11.6820 
  41   2.0000      -0.423423       -11.5219 
  42   2.0000      -0.416942       -11.3456 
  43   2.0000      -0.411466       -11.1966 
  44   2.0000      -0.409685       -11.1481 
  45   2.0000      -0.408632       -11.1194 
  46   2.0000      -0.392230       -10.6731 
  47   2.0000      -0.359369        -9.7789 
  48   2.0000      -0.326450        -8.8832 
  49   0.0000       0.046125         1.2551 
  50   0.0000       0.065034         1.7697 
  51   0.0000       0.083044         2.2597 
  52   0.0000       0.096272         2.6197 
  53   0.0000       0.109724         2.9857 
  54   0.0000       0.155760         4.2384 
  55   0.0000       0.191818         5.2196 
  56   0.0000       0.198709         5.4071 
  57   0.0000       0.201477         5.4825 
  58   0.0000       0.203594         5.5401 
  59   0.0000       0.215249         5.8572 
*Only the first 10 virtual orbitals were printed.

                    ********************************
                    * MULLIKEN POPULATION ANALYSIS *
                    ********************************

-----------------------
MULLIKEN ATOMIC CHARGES
-----------------------
   0 F :   -0.287307
   1 F :   -0.297618
   2 F :   -0.302819
   3 F :   -0.294147
   4 F :   -0.285549
   5 F :   -0.289230
   6 F :   -0.283270
   7 O :   -0.488710
   8 C :    0.842320
   9 C :   -0.166175
  10 C :    0.446199
  11 C :    0.909734
  12 H :    0.188493
  13 H :    0.169244
  14 H :    0.138836
Sum of atomic charges:    0.0000000

--------------------------------
MULLIKEN REDUCED ORBITAL CHARGES
--------------------------------
  0 F s       :     3.981238  s :     3.981238
      pz      :     1.638854  p :     5.288647
      px      :     1.778035
      py      :     1.871759
      dz2     :     0.004280  d :     0.017422
      dxz     :     0.005711
      dyz     :     0.003881
      dx2y2   :     0.001835
      dxy     :     0.001715

  1 F s       :     3.977528  s :     3.977528
      pz      :     1.714592  p :     5.302962
      px      :     1.900398
      py      :     1.687971
      dz2     :     0.003336  d :     0.017127
      dxz     :     0.001896
      dyz     :     0.006321
      dx2y2   :     0.003226
      dxy     :     0.002349

  2 F s       :     3.970586  s :     3.970586
      pz      :     1.897762  p :     5.314806
      px      :     1.508272
      py      :     1.908772
      dz2     :     0.002093  d :     0.017428
      dxz     :     0.004839
      dyz     :     0.000514
      dx2y2   :     0.005879
      dxy     :     0.004103

  3 F s       :     3.968690  s :     3.968690
      pz      :     1.694360  p :     5.308106
      px      :     1.906044
      py      :     1.707702
      dz2     :     0.003882  d :     0.017350
      dxz     :     0.001999
      dyz     :     0.006431
      dx2y2   :     0.003038
      dxy     :     0.002001

  4 F s       :     3.970022  s :     3.970022
      pz      :     1.839005  p :     5.298344
      px      :     1.863146
      py      :     1.596192
      dz2     :     0.002245  d :     0.017184
      dxz     :     0.001589
      dyz     :     0.004570
      dx2y2   :     0.004590
      dxy     :     0.004189

  5 F s       :     3.970901  s :     3.970901
      pz      :     1.688212  p :     5.301259
      px      :     1.739099
      py      :     1.873948
      dz2     :     0.003892  d :     0.017070
      dxz     :     0.005739
      dyz     :     0.002759
      dx2y2   :     0.002449
      dxy     :     0.002232

  6 F s       :     3.969730  s :     3.969730
      pz      :     1.683270  p :     5.296344
      px      :     1.911535
      py      :     1.701539
      dz2     :     0.003530  d :     0.017196
      dxz     :     0.002526
      dyz     :     0.006504
      dx2y2   :     0.002543
      dxy     :     0.002093

  7 O s       :     3.888460  s :     3.888460
      pz      :     1.515943  p :     4.572015
      px      :     1.243754
      py      :     1.812318
      dz2     :     0.006676  d :     0.028235
      dxz     :     0.008392
      dyz     :     0.004510
      dx2y2   :     0.005154
      dxy     :     0.003504

  8 C s       :     2.851666  s :     2.851666
      pz      :     0.628573  p :     2.161839
      px      :     0.719558
      py      :     0.813708
      dz2     :     0.027234  d :     0.144176
      dxz     :     0.029921
      dyz     :     0.033116
      dx2y2   :     0.030087
      dxy     :     0.023817

  9 C s       :     3.218736  s :     3.218736
      pz      :     0.886822  p :     2.883319
      px      :     0.923193
      py      :     1.073304
      dz2     :     0.010543  d :     0.064120
      dxz     :     0.014165
      dyz     :     0.018240
      dx2y2   :     0.014427
      dxy     :     0.006744

 10 C s       :     3.046636  s :     3.046636
      pz      :     0.841392  p :     2.394922
      px      :     0.713607
      py      :     0.839923
      dz2     :     0.019468  d :     0.112243
      dxz     :     0.024611
      dyz     :     0.022397
      dx2y2   :     0.025684
      dxy     :     0.020083

 11 C s       :     2.790993  s :     2.790993
      pz      :     0.647943  p :     2.144371
      px      :     0.853959
      py      :     0.642469
      dz2     :     0.027325  d :     0.154902
      dxz     :     0.030078
      dyz     :     0.040278
      dx2y2   :     0.032655
      dxy     :     0.024564

 12 H s       :     0.811507  s :     0.811507

 13 H s       :     0.830756  s :     0.830756

 14 H s       :     0.861164  s :     0.861164



                     *******************************
                     * LOEWDIN POPULATION ANALYSIS *
                     *******************************

----------------------
LOEWDIN ATOMIC CHARGES
----------------------
   0 F :   -0.074079
   1 F :   -0.093939
   2 F :   -0.112630
   3 F :   -0.109314
   4 F :   -0.090478
   5 F :   -0.088983
   6 F :   -0.087876
   7 O :   -0.190911
   8 C :    0.223730
   9 C :   -0.137578
  10 C :    0.109761
  11 C :    0.251103
  12 H :    0.145213
  13 H :    0.134709
  14 H :    0.121274

-------------------------------
LOEWDIN REDUCED ORBITAL CHARGES
-------------------------------
  0 F s       :     3.739052  s :     3.739052
      pz      :     1.654134  p :     5.300900
      px      :     1.781744
      py      :     1.865022
      dz2     :     0.008411  d :     0.034127
      dxz     :     0.011593
      dyz     :     0.007451
      dx2y2   :     0.003382
      dxy     :     0.003291

  1 F s       :     3.740951  s :     3.740951
      pz      :     1.723946  p :     5.318025
      px      :     1.894874
      py      :     1.699205
      dz2     :     0.006258  d :     0.034963
      dxz     :     0.003904
      dyz     :     0.014286
      dx2y2   :     0.006576
      dxy     :     0.003940

  2 F s       :     3.741432  s :     3.741432
      pz      :     1.893055  p :     5.335956
      px      :     1.542010
      py      :     1.900890
      dz2     :     0.004346  d :     0.035242
      dxz     :     0.009464
      dyz     :     0.000977
      dx2y2   :     0.012624
      dxy     :     0.007830

  3 F s       :     3.743475  s :     3.743475
      pz      :     1.719491  p :     5.330728
      px      :     1.896538
      py      :     1.714699
      dz2     :     0.008135  d :     0.035111
      dxz     :     0.003770
      dyz     :     0.013978
      dx2y2   :     0.005874
      dxy     :     0.003355

  4 F s       :     3.741433  s :     3.741433
      pz      :     1.839426  p :     5.314722
      px      :     1.858845
      py      :     1.616452
      dz2     :     0.003817  d :     0.034322
      dxz     :     0.002986
      dyz     :     0.009454
      dx2y2   :     0.009370
      dxy     :     0.008695

  5 F s       :     3.739745  s :     3.739745
      pz      :     1.698290  p :     5.315183
      px      :     1.745811
      py      :     1.871081
      dz2     :     0.007282  d :     0.034055
      dxz     :     0.012887
      dyz     :     0.005478
      dx2y2   :     0.004544
      dxy     :     0.003863

  6 F s       :     3.740890  s :     3.740890
      pz      :     1.698144  p :     5.312623
      px      :     1.901692
      py      :     1.712788
      dz2     :     0.006224  d :     0.034364
      dxz     :     0.004589
      dyz     :     0.014391
      dx2y2   :     0.005395
      dxy     :     0.003764

  7 O s       :     3.497504  s :     3.497504
      pz      :     1.560092  p :     4.632010
      px      :     1.271392
      py      :     1.800527
      dz2     :     0.013011  d :     0.061396
      dxz     :     0.018875
      dyz     :     0.007566
      dx2y2   :     0.014004
      dxy     :     0.007941

  8 C s       :     2.841795  s :     2.841795
      pz      :     0.806134  p :     2.595009
      px      :     0.856700
      py      :     0.932175
      dz2     :     0.062510  d :     0.339466
      dxz     :     0.069836
      dyz     :     0.083238
      dx2y2   :     0.073155
      dxy     :     0.050728

  9 C s       :     2.942564  s :     2.942564
      pz      :     0.973545  p :     3.058497
      px      :     0.970739
      py      :     1.114213
      dz2     :     0.023505  d :     0.136517
      dxz     :     0.031942
      dyz     :     0.036898
      dx2y2   :     0.031015
      dxy     :     0.013158

 10 C s       :     2.907211  s :     2.907211
      pz      :     0.946049  p :     2.716497
      px      :     0.832395
      py      :     0.938053
      dz2     :     0.045413  d :     0.266530
      dxz     :     0.055464
      dyz     :     0.056002
      dx2y2   :     0.062803
      dxy     :     0.046849

 11 C s       :     2.832895  s :     2.832895
      pz      :     0.801583  p :     2.546594
      px      :     0.957872
      py      :     0.787139
      dz2     :     0.062043  d :     0.369407
      dxz     :     0.073208
      dyz     :     0.099733
      dx2y2   :     0.082033
      dxy     :     0.052390

 12 H s       :     0.854787  s :     0.854787

 13 H s       :     0.865291  s :     0.865291

 14 H s       :     0.878726  s :     0.878726



                      *****************************
                      * MAYER POPULATION ANALYSIS *
                      *****************************

  NA   - Mulliken gross atomic population
  ZA   - Total nuclear charge
  QA   - Mulliken gross atomic charge
  VA   - Mayer's total valence
  BVA  - Mayer's bonded valence
  FA   - Mayer's free valence

  ATOM       NA         ZA         QA         VA         BVA        FA
  0 F      9.2873     9.0000    -0.2873     1.0765     1.0765     0.0000
  1 F      9.2976     9.0000    -0.2976     1.0488     1.0488     0.0000
  2 F      9.3028     9.0000    -0.3028     1.0428     1.0428     0.0000
  3 F      9.2941     9.0000    -0.2941     1.0464     1.0464     0.0000
  4 F      9.2855     9.0000    -0.2855     1.0736     1.0736    -0.0000
  5 F      9.2892     9.0000    -0.2892     1.0705     1.0705    -0.0000
  6 F      9.2833     9.0000    -0.2833     1.0742     1.0742    -0.0000
  7 O      8.4887     8.0000    -0.4887     1.9285     1.9285     0.0000
  8 C      5.1577     6.0000     0.8423     3.8603     3.8603     0.0000
  9 C      6.1662     6.0000    -0.1662     3.7945     3.7945     0.0000
 10 C      5.5538     6.0000     0.4462     3.8317     3.8317     0.0000
 11 C      5.0903     6.0000     0.9097     3.9928     3.9928     0.0000
 12 H      0.8115     1.0000     0.1885     0.9265     0.9265    -0.0000
 13 H      0.8308     1.0000     0.1692     0.9230     0.9230     0.0000
 14 H      0.8612     1.0000     0.1388     0.9311     0.9311     0.0000

  Mayer bond orders larger than 0.100000
B(  0-F ,  8-C ) :   0.9876 B(  1-F ,  8-C ) :   0.9456 B(  2-F , 10-C ) :   0.9624 
B(  3-F , 10-C ) :   0.9700 B(  4-F , 11-C ) :   1.0063 B(  5-F , 11-C ) :   0.9840 
B(  6-F , 11-C ) :   1.0042 B(  7-O ,  8-C ) :   0.9445 B(  7-O ,  9-C ) :   0.8951 
B(  8-C , 10-C ) :   0.8932 B(  9-C , 11-C ) :   0.9766 B(  9-C , 12-H ) :   0.9007 
B(  9-C , 13-H ) :   0.8972 B( 10-C , 14-H ) :   0.9071 

-------
TIMINGS
-------

Total SCF time: 0 days 0 hours 0 min 50 sec 

Total time                  ....      50.734 sec
Sum of individual times     ....      47.842 sec  ( 94.3%)

SCF preparation             ....       0.110 sec  (  0.2%)
Fock matrix formation       ....      47.551 sec  ( 93.7%)
  Startup                   ....       0.007 sec  (  0.0% of F)
  Split-RI-J                ....       2.264 sec  (  4.8% of F)
  Chain of spheres X        ....      40.881 sec  ( 86.0% of F)
  XC integration            ....       7.057 sec  ( 14.8% of F)
    XC Preparation          ....       0.000 sec  (  0.0% of XC)
    Basis function eval.    ....       2.621 sec  ( 37.1% of XC)
    Density eval.           ....       1.475 sec  ( 20.9% of XC)
    XC-Functional eval.     ....       0.470 sec  (  6.7% of XC)
    XC-Potential eval.      ....       1.941 sec  ( 27.5% of XC)
Diagonalization             ....       0.000 sec  (  0.0%)
Density matrix formation    ....       0.035 sec  (  0.1%)
Total Energy calculation    ....       0.004 sec  (  0.0%)
Population analysis         ....       0.009 sec  (  0.0%)
Orbital Transformation      ....       0.021 sec  (  0.0%)
Orbital Orthonormalization  ....       0.000 sec  (  0.0%)
DIIS solution               ....       0.060 sec  (  0.1%)
SOSCF solution              ....       0.051 sec  (  0.1%)
Finished LeanSCF after  50.7 sec

Maximum memory used throughout the entire LEANSCF-calculation: 21.2 MB

------------------------------------------------------------------------------
                         ORCA PROPERTY INTEGRAL CALCULATIONS
------------------------------------------------------------------------------

GBWName                                   ... HFE_347pcf2_gauche1.gbw
Number of atoms                           ...     15
Number of basis functions                 ...    174
Max core memory                           ...   4096 MB

Dipole integrals                          ... YES
Quadrupole integrals                      ...  NO
Linear momentum integrals                 ...  NO
Angular momentum integrals                ...  NO
Higher moments length integrals           ...  NO
Higher moments velocity integrals         ...  NO
Kinetic energy integrals                  ...  NO
GIAO right hand sides                     ...  NO
GIAO dipole derivative integrals          ...  NO
SOC integrals                             ...  NO
EPR diamagnetic integrals (GIAO)          ...  NO
EPR gauge integrals                       ...  NO
Field gradient integrals                  ...  NO (   0 nuclei)
Spin-dipole/Fermi contact integrals       ...  NO (   0 nuclei)
Contact density integrals                 ...  NO (   0 nuclei)
Nucleus-orbit integrals                   ...  NO (   0 nuclei)
Geometric perturbations                   ...  NO (  15 nuclei)

Choice of electric origin   ... Center of mass
Position of electric origin ... (  0.0036, -0.0093, -0.0132) 
Choice of magnetic origin   ... GIAO
Position of magnetic origin ... (  0.0000,  0.0000,  0.0000) 

Calculating integrals                     ... Electric Dipole (Length)     done (  0.0 sec)

Property integrals calculated in   0.0 sec

Maximum memory used throughout the entire PROPINT-calculation: 12.5 MB

-------------------------   --------------------
FINAL SINGLE POINT ENERGY      -927.936680512020
-------------------------   --------------------

------------------------------------------------------------------------------
                         ORCA SCF GRADIENT CALCULATION
------------------------------------------------------------------------------

Nuc. rep. gradient        (SHARK) ... done (  0.0 sec)
HCore & Overlap gradient  (SHARK) ... done (  0.2 sec)
Split-RIJ-J gradient      (SHARK) ... done (  1.6 sec)
COSX-gradient                     ... done ( 24.6 sec)
XC gradient                       ... done (  3.8 sec)

------------------
CARTESIAN GRADIENT
------------------

   1   F   :    0.015101908    0.004760673   -0.009011640
   2   F   :   -0.002148517    0.000060115   -0.003328828
   3   F   :   -0.005540775   -0.007064792   -0.001613051
   4   F   :    0.007626431   -0.000839030    0.003000680
   5   F   :   -0.000067744    0.003445284   -0.001650680
   6   F   :   -0.006552069    0.000263741   -0.000431176
   7   F   :   -0.000546592   -0.002003217   -0.004544659
   8   O   :   -0.026109196   -0.003969691    0.000134719
   9   C   :    0.025293846   -0.008475126    0.019508297
  10   C   :   -0.001357785    0.000325340   -0.007580835
  11   C   :   -0.025316912    0.021719958   -0.008051846
  12   C   :    0.010902105   -0.008110788    0.015759991
  13   H   :    0.003168418    0.000993771   -0.000809554
  14   H   :    0.000868438    0.001606345   -0.001343146
  15   H   :    0.004678444   -0.002712583   -0.000038272

Difference to translation invariance:
           :    0.0000000001    0.0000000001   -0.0000000002

Difference to rotation invariance:
           :   -0.0000022076   -0.0005170617    0.0007750200

Norm of the Cartesian gradient     ...    0.0639309157
RMS gradient                       ...    0.0095302582
MAX gradient                       ...    0.0261091957

-------
TIMINGS
-------

Total SCF gradient time     ....       30.172 sec

Densities                   ....       0.001 sec  (  0.0%)
One electron gradient       ....       0.194 sec  (  0.6%)
RI-J Coulomb gradient       ....       1.620 sec  (  5.4%)
COSX gradient               ....      24.567 sec  ( 81.4%)
XC gradient                 ....       3.790 sec  ( 12.6%)

Maximum memory used throughout the entire SCFGRAD-calculation: 25.0 MB
------------------------------------------------------------------------------
                         ORCA GEOMETRY RELAXATION STEP
------------------------------------------------------------------------------

Reading the OPT-File                    .... done
Getting information on internals        .... done
Copying old internal coords+grads       .... done
Making the new internal coordinates     .... (2022 redundants) done
Validating the new internal coordinates .... (2022 redundants) done
Calculating the B-matrix                .... done
Calculating the G,G- and P matrices     .... done
Transforming gradient to internals      .... done
Projecting the internal gradient        .... done
Number of atoms                         ....  15
Number of internal coordinates          ....  57
Current Energy                          ....  -927.936680512 Eh
Current gradient norm                   ....     0.063930916 Eh/bohr
Maximum allowed component of the step   ....  0.300
Current trust radius                    ....  0.300
Evaluating the initial hessian          ....  (Almloef) done
Projecting the Hessian                  .... done
Forming the augmented Hessian           .... done
Diagonalizing the augmented Hessian     .... done
Last element of RFO vector              ....  0.963205974
Lowest eigenvalues of augmented Hessian:
 -0.011505832  0.013130407  0.013489638  0.019701152  0.020837848
Length of the computed step             ....  0.279030977
The final length of the internal step   ....  0.279030977
Converting the step to Cartesian space:
 Initial RMS(Int)=    0.0369585557
Transforming coordinates:
 Iter   0:  RMS(Cart)=    0.1559533040 RMS(Int)=    0.8230059975
 Iter   5:  RMS(Cart)=    0.0000022308 RMS(Int)=    0.0000015983
done
Storing new coordinates                 .... done

                                .--------------------.
          ----------------------|Geometry convergence|-------------------------
          Item                value                   Tolerance       Converged
          ---------------------------------------------------------------------
          RMS gradient        0.0083586741            0.0001000000      NO
          MAX gradient        0.0281533174            0.0003000000      NO
          RMS step            0.0369585557            0.0020000000      NO
          MAX step            0.1102694261            0.0040000000      NO
          -------------------------------------------------------------------------
          ........................................................
          Max(Bonds)      0.0234      Max(Angles)    4.25
          Max(Dihed)        6.32      Max(Improp)    0.00
          ---------------------------------------------------------------------

The optimization has not yet converged - more geometry cycles are needed


    ---------------------------------------------------------------------------
                         Redundant Internal Coordinates
                            (Angstroem and degrees)

        Definition                    Value    dE/dq     Step     New-Value
    ----------------------------------------------------------------------------
     1. B(C   8,F   1)                1.3540 -0.002440  0.0021    1.3561   
     2. B(C   8,O   7)                1.4217  0.019719 -0.0205    1.4012   
     3. B(C   8,F   0)                1.3550  0.016626 -0.0146    1.3404   
     4. B(C   9,O   7)                1.4208 -0.003253  0.0034    1.4241   
     5. B(C  10,F   3)                1.3555 -0.001839  0.0016    1.3571   
     6. B(C  10,C   8)                1.5053 -0.018563  0.0234    1.5286   
     7. B(C  10,F   2)                1.3560 -0.006508  0.0057    1.3617   
     8. B(C  11,F   6)                1.3498  0.004666 -0.0040    1.3457   
     9. B(C  11,F   5)                1.3498  0.003672 -0.0032    1.3466   
    10. B(C  11,C   9)                1.5066 -0.005904  0.0075    1.5141   
    11. B(C  11,F   4)                1.3510  0.003634 -0.0031    1.3478   
    12. B(H  12,C   9)                1.0950  0.000213 -0.0003    1.0947   
    13. B(H  13,C   9)                1.0918 -0.001706  0.0024    1.0942   
    14. B(H  14,C  10)                1.0900 -0.001238  0.0018    1.0918   
    15. A(C   8,O   7,C   9)          112.55 -0.028153    3.95    116.51   
    16. A(F   1,C   8,C  10)          110.06  0.008430   -0.59    109.47   
    17. A(F   1,C   8,O   7)          109.61  0.002217    0.54    110.15   
    18. A(O   7,C   8,C  10)          110.34 -0.027434    4.25    114.59   
    19. A(F   0,C   8,C  10)          109.67  0.003037   -0.85    108.83   
    20. A(F   0,C   8,F   1)          107.97 -0.003645   -0.14    107.83   
    21. A(F   0,C   8,O   7)          109.14  0.018085   -3.34    105.80   
    22. A(H  12,C   9,H  13)          109.44  0.000521    0.20    109.65   
    23. A(C  11,C   9,H  13)          106.23 -0.002863    0.44    106.67   
    24. A(O   7,C   9,H  13)          111.94 -0.003436    0.76    112.70   
    25. A(C  11,C   9,H  12)          109.94  0.002133   -0.75    109.19   
    26. A(O   7,C   9,H  12)          110.13 -0.005308    0.80    110.93   
    27. A(O   7,C   9,C  11)          109.08  0.009230   -1.51    107.56   
    28. A(F   3,C  10,H  14)          109.04 -0.003372    0.28    109.32   
    29. A(F   2,C  10,H  14)          106.07 -0.007229    0.91    106.98   
    30. A(F   2,C  10,F   3)          106.81 -0.009746    1.86    108.67   
    31. A(F   3,C  10,C   8)          109.52  0.007220   -0.87    108.64   
    32. A(C   8,C  10,H  14)          115.35  0.004660   -1.07    114.27   
    33. A(F   2,C  10,C   8)          109.69  0.006833   -0.81    108.88   
    34. A(F   4,C  11,C   9)          110.61 -0.006492    0.92    111.53   
    35. A(F   5,C  11,F   6)          108.10  0.000881   -0.10    107.99   
    36. A(F   4,C  11,F   6)          107.71 -0.004070    0.55    108.27   
    37. A(F   4,C  11,F   5)          107.74 -0.002965    0.39    108.13   
    38. A(F   6,C  11,C   9)          111.26 -0.000208    0.04    111.31   
    39. A(F   5,C  11,C   9)          111.27  0.012413   -1.74    109.53   
    40. D(F   1,C   8,O   7,C   9)    -61.36  0.001499    3.97    -57.39   
    41. D(F   0,C   8,O   7,C   9)   -179.42 -0.006027    5.79   -173.63   
    42. D(C  10,C   8,O   7,C   9)     60.00 -0.004204    6.32     66.32   
    43. D(H  13,C   9,O   7,C   8)    -62.07  0.003830   -3.99    -66.06   
    44. D(H  12,C   9,O   7,C   8)     59.92 -0.001592   -2.65     57.28   
    45. D(C  11,C   9,O   7,C   8)   -179.34  0.003579   -4.03   -183.37   
    46. D(F   2,C  10,C   8,F   0)     58.29 -0.002253   -1.54     56.74   
    47. D(F   3,C  10,C   8,O   7)     61.63  0.008435   -4.82     56.81   
    48. D(F   3,C  10,C   8,F   1)   -177.28 -0.001123   -1.77   -179.05   
    49. D(F   3,C  10,C   8,F   0)    -58.63  0.001383   -2.81    -61.45   
    50. D(F   2,C  10,C   8,O   7)    178.55  0.004798   -3.55    175.00   
    51. D(F   2,C  10,C   8,F   1)    -60.36 -0.004759   -0.50    -60.86   
    52. D(F   4,C  11,C   9,H  13)    179.61  0.000401   -0.28    179.33   
    53. D(F   4,C  11,C   9,H  12)     61.29  0.000289   -0.38     60.92   
    54. D(F   4,C  11,C   9,O   7)    -59.56 -0.000305    0.05    -59.51   
    55. D(F   5,C  11,C   9,H  13)     59.90  0.000298   -0.23     59.66   
    56. D(F   5,C  11,C   9,H  12)    -58.42  0.000186   -0.33    -58.75   
    57. D(F   5,C  11,C   9,O   7)   -179.28 -0.000408    0.10   -179.18   
    ----------------------------------------------------------------------------

Geometry step timings:
Preparation and reading OPT file:      0.000 s ( 1.476 %)
Internal coordinates            :      0.001 s (21.934 %)
B/P matrices and projection     :      0.001 s (28.435 %)
Hessian update/contruction      :      0.001 s (13.858 %)
Making the step                 :      0.001 s (14.457 %)
Converting the step to Cartesian:      0.000 s ( 5.065 %)
Storing new data                :      0.000 s ( 1.555 %)
Checking convergence            :      0.000 s ( 1.117 %)
Final printing                  :      0.001 s (12.084 %)
Total time                      :      0.005 s

Time for energy+gradient        :     84.191 s
Time for complete geometry iter :     84.290 s

         *************************************************************
         *                GEOMETRY OPTIMIZATION CYCLE   2            *
         *************************************************************
---------------------------------
CARTESIAN COORDINATES (ANGSTROEM)
---------------------------------
  F      1.896174    0.951096   -1.193352
  F      1.387868    1.491974    0.855355
  F      3.302823   -0.462776    0.615278
  F      1.888705   -1.699253   -0.546828
  F     -2.711453    1.114870   -0.524880
  F     -3.237291   -0.349396    1.004584
  F     -2.440072   -1.016482   -0.909287
  O     -0.061931    0.336144   -0.437093
  C      1.281517    0.519038   -0.083330
  C     -0.958536    0.008606    0.619770
  C      1.985997   -0.743897    0.412113
  C     -2.352312   -0.058793    0.032079
  H     -0.934972    0.772842    1.403180
  H     -0.754442   -0.973263    1.057543
  H      1.595025   -1.135810    1.353169

----------------------------
CARTESIAN COORDINATES (A.U.)
----------------------------
  NO LB      ZA    FRAG     MASS         X           Y           Z
   0 F     9.0000    0    18.998    3.583249    1.797311   -2.255108
   1 F     9.0000    0    18.998    2.622691    2.819423    1.616387
   2 F     9.0000    0    18.998    6.241431   -0.874519    1.162706
   3 F     9.0000    0    18.998    3.569135   -3.211123   -1.033355
   4 F     9.0000    0    18.998   -5.123904    2.106798   -0.991880
   5 F     9.0000    0    18.998   -6.117594   -0.660262    1.898389
   6 F     9.0000    0    18.998   -4.611068   -1.920873   -1.718304
   7 O     8.0000    0    15.999   -0.117032    0.635221   -0.825987
   8 C     6.0000    0    12.011    2.421717    0.980839   -0.157470
   9 C     6.0000    0    12.011   -1.811370    0.016263    1.171195
  10 C     6.0000    0    12.011    3.752990   -1.405762    0.778781
  11 C     6.0000    0    12.011   -4.445225   -0.111103    0.060620
  12 H     1.0000    0     1.008   -1.766841    1.460460    2.651625
  13 H     1.0000    0     1.008   -1.425689   -1.839200    1.998466
  14 H     1.0000    0     1.008    3.014161   -2.146370    2.557119

--------------------------------
INTERNAL COORDINATES (ANGSTROEM)
--------------------------------
 F      0   0   0     0.000000000000     0.00000000     0.00000000
 F      1   0   0     2.179019140193     0.00000000     0.00000000
 F      1   2   0     2.692366015712    67.70580880     0.00000000
 F      3   1   2     2.208867885645    66.80040003   113.18454346
 F      2   1   3     4.341853626987    84.24951089   227.39377215
 F      5   2   1     2.181706052626    93.61179835   123.98491720
 F      6   5   2     2.177950333116    60.08638721   270.54510233
 O      1   2   3     2.187296218370    62.34694302   108.78241335
 C      1   2   3     1.340382672304    36.33437965    70.78762325
 C      8   1   2     1.424128295584   152.23419897   335.95184097
 C      4   3   1     1.357106691613    35.73629358   289.28726744
 C      7   6   5     1.345748916786    36.02184442    37.15074278
 H     10   8   1     1.094688656871   110.91443442    49.26303660
 H     10   8   1     1.094242006326   112.69606458   285.90645850
 H     11   4   3     1.091806275422   109.30983639   243.59355445

---------------------------
INTERNAL COORDINATES (A.U.)
---------------------------
 F      0   0   0     0.000000000000     0.00000000     0.00000000
 F      1   0   0     4.117749415537     0.00000000     0.00000000
 F      1   2   0     5.087834421973    67.70580880     0.00000000
 F      3   1   2     4.174155369882    66.80040003   113.18454346
 F      2   1   3     8.204914268578    84.24951089   227.39377215
 F      5   2   1     4.122826944181    93.61179835   123.98491720
 F      6   5   2     4.115729662873    60.08638721   270.54510233
 O      1   2   3     4.133390826481    62.34694302   108.78241335
 C      1   2   3     2.532956165309    36.33437965    70.78762325
 C      8   1   2     2.691212458222   152.23419897   335.95184097
 C      4   3   1     2.564559981661    35.73629358   289.28726744
 C      7   6   5     2.543096897746    36.02184442    37.15074278
 H     10   8   1     2.068661763397   110.91443442    49.26303660
 H     10   8   1     2.067817716188   112.69606458   285.90645850
 H     11   4   3     2.063214851844   109.30983639   243.59355445

------------------------------------------------------------------------------
                   ___                                                        
                  /   \      - P O W E R E D   B Y -                         
                 /     \                                                     
                 |  |  |   _    _      __       _____    __    __             
                 |  |  |  | |  | |    /  \     |  _  \  |  |  /  |          
                  \  \/   | |  | |   /    \    | | | |  |  | /  /          
                 / \  \   | |__| |  /  /\  \   | |_| |  |  |/  /          
                |  |  |   |  __  | /  /__\  \  |    /   |      \           
                |  |  |   | |  | | |   __   |  |    \   |  |\   \          
                \     /   | |  | | |  |  |  |  | |\  \  |  | \   \       
                 \___/    |_|  |_| |__|  |__|  |_| \__\ |__|  \__/        
                                                                              
                      - O R C A' S   B I G   F R I E N D -                    
                                      &                                       
                       - I N T E G R A L  F E E D E R -                       
[...]
freq.     261.03  E(vib)   ...       0.33 
freq.     324.74  E(vib)   ...       0.28 
freq.     358.62  E(vib)   ...       0.26 
freq.     374.77  E(vib)   ...       0.24 
freq.     416.96  E(vib)   ...       0.22 
freq.     509.36  E(vib)   ...       0.16 
freq.     527.62  E(vib)   ...       0.16 
freq.     553.84  E(vib)   ...       0.14 
freq.     581.04  E(vib)   ...       0.13 
freq.     592.51  E(vib)   ...       0.13 
freq.     657.03  E(vib)   ...       0.10 
freq.     734.70  E(vib)   ...       0.08 
freq.     859.98  E(vib)   ...       0.05 
freq.     870.05  E(vib)   ...       0.05 
freq.    1002.48  E(vib)   ...       0.03 
freq.    1104.97  E(vib)   ...       0.02 
freq.    1135.74  E(vib)   ...       0.02 
freq.    1153.43  E(vib)   ...       0.02 
freq.    1180.39  E(vib)   ...       0.02 
freq.    1209.10  E(vib)   ...       0.02 
freq.    1213.33  E(vib)   ...       0.01 
freq.    1242.59  E(vib)   ...       0.01 
freq.    1320.04  E(vib)   ...       0.01 
freq.    1330.52  E(vib)   ...       0.01 
freq.    1349.19  E(vib)   ...       0.01 
freq.    1413.32  E(vib)   ...       0.01 
freq.    1447.38  E(vib)   ...       0.01 
freq.    1464.89  E(vib)   ...       0.01 
freq.    1528.75  E(vib)   ...       0.00 
freq.    3072.16  E(vib)   ...       0.00 
freq.    3099.66  E(vib)   ...       0.00 
freq.    3133.20  E(vib)   ...       0.00 

------------
INNER ENERGY
------------

The inner energy is: U= E(el) + E(ZPE) + E(vib) + E(rot) + E(trans)
    E(el)   - is the total energy from the electronic structure calculation
              = E(kin-el) + E(nuc-el) + E(el-el) + E(nuc-nuc)
    E(ZPE)  - the the zero temperature vibrational energy from the frequency calculation
    E(vib)  - the the finite temperature correction to E(ZPE) due to population
              of excited vibrational states
    E(rot)  - is the rotational thermal energy
    E(trans)- is the translational thermal energy

Summary of contributions to the inner energy U:
Electronic energy                ...   -927.94470446 Eh
Zero point energy                ...      0.08383403 Eh      52.61 kcal/mol
Thermal vibrational correction   ...      0.00958970 Eh       6.02 kcal/mol
Thermal rotational correction    ...      0.00152006 Eh       0.95 kcal/mol
Thermal translational correction ...      0.00152006 Eh       0.95 kcal/mol
-----------------------------------------------------------------------
Total thermal energy                   -927.84824060 Eh


Summary of corrections to the electronic energy:
(perhaps to be used in another calculation)
Total thermal correction                  0.01262982 Eh       7.93 kcal/mol
Non-thermal (ZPE) correction              0.08383403 Eh      52.61 kcal/mol
-----------------------------------------------------------------------
Total correction                          0.09646385 Eh      60.53 kcal/mol


--------
ENTHALPY
--------

The enthalpy is H = U + kB*T
                kB is Boltzmann's constant
Total thermal energy              ...   -927.84824060 Eh 
Thermal Enthalpy correction       ...      0.00101341 Eh       0.64 kcal/mol
-----------------------------------------------------------------------
Total Enthalpy                    ...   -927.84722720 Eh


Note: Only C1 symmetry has been detected, increase convergence thresholds 
      if your molecule has a higher symmetry. Symmetry factor of 1.0 is   
      used for the rotational entropy correction. 
 

Note: Rotational entropy computed according to Herzberg 
Infrared and Raman Spectra, Chapter V,1, Van Nostrand Reinhold, 1945 
Point Group:  C1, Symmetry Number:   1  
Rotational constants in cm-1:     0.059575     0.015706     0.014686 

Vibrational entropy computed according to the QRRHO of S. Grimme
Chem.Eur.J. 2012 18 9955 using a reference frequency of 100.0 cm-1


-------
ENTROPY
-------

The entropy contributions are T*S = T*(S(el)+S(vib)+S(rot)+S(trans))
     S(el)   - electronic entropy
     S(vib)  - vibrational entropy
     S(rot)  - rotational entropy
     S(trans)- translational entropy
The entropies will be listed as multiplied by the temperature to get
units of energy

Electronic entropy                ...      0.00000000 Eh      0.00 kcal/mol
Vibrational entropy               ...      0.01739376 Eh     10.91 kcal/mol
Rotational entropy                ...      0.01598774 Eh     10.03 kcal/mol
Translational entropy             ...      0.02148743 Eh     13.48 kcal/mol
-----------------------------------------------------------------------
Final entropy term                ...      0.05486893 Eh     34.43 kcal/mol

In case the symmetry of your molecule has not been determined correctly
or in case you have a reason to use a different symmetry number we print 
out the resulting rotational entropy values for sn=1,12:

 non-linear molecules -----------------------------------
|  sn= 1 | S(rot)=       0.01598774 Eh     10.03 kcal/mol|
|  sn= 2 | S(rot)=       0.01528532 Eh      9.59 kcal/mol|
|  sn= 3 | S(rot)=       0.01487443 Eh      9.33 kcal/mol|
|  sn= 4 | S(rot)=       0.01458290 Eh      9.15 kcal/mol|
|  sn= 5 | S(rot)=       0.01435677 Eh      9.01 kcal/mol|
|  sn= 6 | S(rot)=       0.01417201 Eh      8.89 kcal/mol|
|  sn= 7 | S(rot)=       0.01401580 Eh      8.80 kcal/mol|
|  sn= 8 | S(rot)=       0.01388048 Eh      8.71 kcal/mol|
|  sn= 9 | S(rot)=       0.01376112 Eh      8.64 kcal/mol|
|  sn=10 | S(rot)=       0.01365435 Eh      8.57 kcal/mol|
|  sn=11 | S(rot)=       0.01355777 Eh      8.51 kcal/mol|
|  sn=12 | S(rot)=       0.01346959 Eh      8.45 kcal/mol|
 linear molecules ---------------------------------------
|  Dinfh | S(rot)=       0.01006509 Eh      6.32 kcal/mol|
|  Cinfv | S(rot)=       0.01076751 Eh      6.76 kcal/mol|
 --------------------------------------------------------


-------------------
GIBBS FREE ENERGY
-------------------

The Gibbs free energy is G = H - T*S

Total enthalpy                    ...   -927.84722720 Eh 
Total entropy correction          ...     -0.05486893 Eh    -34.43 kcal/mol
-----------------------------------------------------------------------
Final Gibbs free energy         ...   -927.90209613 Eh

For completeness - the Gibbs free energy minus the electronic energy
G-E(el)                           ...      0.04260833 Eh     26.74 kcal/mol


The first frequency considered to be a vibration is 6
The total number of vibrations considered is 39


--------------------------
THERMOCHEMISTRY AT 340.00K
--------------------------

Temperature         ...   340.00 K
Pressure            ...     1.00 atm
Total Mass          ...   200.05 AMU
Quasi RRHO          ...     True
Cut-Off Frequency   ...     1.00 cm^-1

Throughout the following assumptions are being made:
  (1) The electronic state is orbitally nondegenerate
  (2) There are no thermally accessible electronically excited states
  (3) Hindered rotations indicated by low frequency modes are not
      treated as such but are treated as vibrations and this may
      cause some error
  (4) All equations used are the standard statistical mechanics
      equations for an ideal gas
  (5) All vibrations are strictly harmonic

freq.      23.24  E(vib)   ...       0.64 
freq.      34.11  E(vib)   ...       0.63 
freq.      62.26  E(vib)   ...       0.59 
freq.      87.52  E(vib)   ...       0.56 
freq.     150.11  E(vib)   ...       0.48 
freq.     180.37  E(vib)   ...       0.45 
freq.     237.92  E(vib)   ...       0.39 
freq.     261.03  E(vib)   ...       0.37 
freq.     324.74  E(vib)   ...       0.31 
freq.     358.62  E(vib)   ...       0.29 
freq.     374.77  E(vib)   ...       0.28 
freq.     416.96  E(vib)   ...       0.25 
freq.     509.36  E(vib)   ...       0.19 
freq.     527.62  E(vib)   ...       0.18 
freq.     553.84  E(vib)   ...       0.17 
freq.     581.04  E(vib)   ...       0.16 
freq.     592.51  E(vib)   ...       0.15 
freq.     657.03  E(vib)   ...       0.12 
freq.     734.70  E(vib)   ...       0.10 
freq.     859.98  E(vib)   ...       0.07 
freq.     870.05  E(vib)   ...       0.06 
freq.    1002.48  E(vib)   ...       0.04 
freq.    1104.97  E(vib)   ...       0.03 
freq.    1135.74  E(vib)   ...       0.03 
freq.    1153.43  E(vib)   ...       0.03 
freq.    1180.39  E(vib)   ...       0.02 
freq.    1209.10  E(vib)   ...       0.02 
freq.    1213.33  E(vib)   ...       0.02 
freq.    1242.59  E(vib)   ...       0.02 
freq.    1320.04  E(vib)   ...       0.01 
freq.    1330.52  E(vib)   ...       0.01 
freq.    1349.19  E(vib)   ...       0.01 
freq.    1413.32  E(vib)   ...       0.01 
freq.    1447.38  E(vib)   ...       0.01 
freq.    1464.89  E(vib)   ...       0.01 
freq.    1528.75  E(vib)   ...       0.01 
freq.    3072.16  E(vib)   ...       0.00 
freq.    3099.66  E(vib)   ...       0.00 
freq.    3133.20  E(vib)   ...       0.00 

------------
INNER ENERGY
------------

The inner energy is: U= E(el) + E(ZPE) + E(vib) + E(rot) + E(trans)
    E(el)   - is the total energy from the electronic structure calculation
              = E(kin-el) + E(nuc-el) + E(el-el) + E(nuc-nuc)
    E(ZPE)  - the the zero temperature vibrational energy from the frequency calculation
    E(vib)  - the the finite temperature correction to E(ZPE) due to population
              of excited vibrational states
    E(rot)  - is the rotational thermal energy
    E(trans)- is the translational thermal energy

Summary of contributions to the inner energy U:
Electronic energy                ...   -927.94470446 Eh
Zero point energy                ...      0.08383403 Eh      52.61 kcal/mol
Thermal vibrational correction   ...      0.01071061 Eh       6.72 kcal/mol
Thermal rotational correction    ...      0.00161507 Eh       1.01 kcal/mol
Thermal translational correction ...      0.00161507 Eh       1.01 kcal/mol
-----------------------------------------------------------------------
Total thermal energy                   -927.84692968 Eh


Summary of corrections to the electronic energy:
(perhaps to be used in another calculation)
Total thermal correction                  0.01394075 Eh       8.75 kcal/mol
Non-thermal (ZPE) correction              0.08383403 Eh      52.61 kcal/mol
-----------------------------------------------------------------------
Total correction                          0.09777478 Eh      61.35 kcal/mol


--------
ENTHALPY
--------

The enthalpy is H = U + kB*T
                kB is Boltzmann's constant
Total thermal energy              ...   -927.84692968 Eh 
Thermal Enthalpy correction       ...      0.00107674 Eh       0.68 kcal/mol
-----------------------------------------------------------------------
Total Enthalpy                    ...   -927.84585293 Eh


Note: Only C1 symmetry has been detected, increase convergence thresholds 
      if your molecule has a higher symmetry. Symmetry factor of 1.0 is   
      used for the rotational entropy correction. 
 

Note: Rotational entropy computed according to Herzberg 
Infrared and Raman Spectra, Chapter V,1, Van Nostrand Reinhold, 1945 
Point Group:  C1, Symmetry Number:   1  
Rotational constants in cm-1:     0.059575     0.015706     0.014686 

Vibrational entropy computed according to the QRRHO of S. Grimme
Chem.Eur.J. 2012 18 9955 using a reference frequency of 100.0 cm-1


-------
ENTROPY
-------

The entropy contributions are T*S = T*(S(el)+S(vib)+S(rot)+S(trans))
     S(el)   - electronic entropy
     S(vib)  - vibrational entropy
     S(rot)  - rotational entropy
     S(trans)- translational entropy
The entropies will be listed as multiplied by the temperature to get
units of energy

Electronic entropy                ...      0.00000000 Eh      0.00 kcal/mol
Vibrational entropy               ...      0.01951372 Eh     12.25 kcal/mol
Rotational entropy                ...      0.01708488 Eh     10.72 kcal/mol
Translational entropy             ...      0.02299358 Eh     14.43 kcal/mol
-----------------------------------------------------------------------
Final entropy term                ...      0.05959218 Eh     37.39 kcal/mol

In case the symmetry of your molecule has not been determined correctly
or in case you have a reason to use a different symmetry number we print 
out the resulting rotational entropy values for sn=1,12:

 non-linear molecules -----------------------------------
|  sn= 1 | S(rot)=       0.01708488 Eh     10.72 kcal/mol|
|  sn= 2 | S(rot)=       0.01633856 Eh     10.25 kcal/mol|
|  sn= 3 | S(rot)=       0.01590199 Eh      9.98 kcal/mol|
|  sn= 4 | S(rot)=       0.01559224 Eh      9.78 kcal/mol|
|  sn= 5 | S(rot)=       0.01535198 Eh      9.63 kcal/mol|
|  sn= 6 | S(rot)=       0.01515567 Eh      9.51 kcal/mol|
|  sn= 7 | S(rot)=       0.01498970 Eh      9.41 kcal/mol|
|  sn= 8 | S(rot)=       0.01484592 Eh      9.32 kcal/mol|
|  sn= 9 | S(rot)=       0.01471911 Eh      9.24 kcal/mol|
|  sn=10 | S(rot)=       0.01460566 Eh      9.17 kcal/mol|
|  sn=11 | S(rot)=       0.01450304 Eh      9.10 kcal/mol|
|  sn=12 | S(rot)=       0.01440935 Eh      9.04 kcal/mol|
 linear molecules ---------------------------------------
|  Dinfh | S(rot)=       0.01075943 Eh      6.75 kcal/mol|
|  Cinfv | S(rot)=       0.01150575 Eh      7.22 kcal/mol|
 --------------------------------------------------------


-------------------
GIBBS FREE ENERGY
-------------------

The Gibbs free energy is G = H - T*S

Total enthalpy                    ...   -927.84585293 Eh 
Total entropy correction          ...     -0.05959218 Eh    -37.39 kcal/mol
-----------------------------------------------------------------------
Final Gibbs free energy         ...   -927.90544512 Eh

For completeness - the Gibbs free energy minus the electronic energy
G-E(el)                           ...      0.03925934 Eh     24.64 kcal/mol


Maximum memory used throughout the entire PROP-calculation: 54.6 MB

--------------------------------
SUGGESTED CITATIONS FOR THIS RUN
--------------------------------

Below you find a list of papers that are relevant to this ORCA run
We neither can nor want to force you to cite these papers, but we appreciate if you do
You receive ORCA, which is the product of decades of hard work by many enthusiastic individuals, for free
The only thing we kindly ask in return is that you cite our papers,
We deeply appreciate it, if you show your appreciation for ORCA by not just citing the generic ORCA reference.

Please note that relegating all ORCA citations to the supporting information does *not* help us.
SI sections are not indexed - citations you put there will not count into any citation statistics
But we need these citations in order to attract the funding resources that allow us to do what we are doing

Therefore, if you are a happy ORCA user, please consider citing a few of the papers listed below in the main body of your paper

In addition to the list printed below, the program has created the file HFE_347pcf2_gauche1.bibtex that contains the list in bibtex format
You can import this file easily into all common literature databanks and citation aid programs

It goes without saying that in many instances, there are alternative algorithms to achieve similar
results as the ones you have gotten from ORCA. It is, of course, also the case that in some instances
ORCA just re-implements algorithms worked out by others. We are fully aware of that and we are also
fully appreciative of our colleagues work. Hence this citation list should not be read as indicating
that the listed papers, which are focused on our own work, are the only ones worth citing. It simply
meant to make it easier for users to cite ORCA specific papers. It is not a substitute for doing your
own literature research and citing the relevant literature in a scientifically appropriate manner.

List of essential papers. We consider these as the minimum necessary citations

  1. Neese, F.
     Software update: the ORCA program system, version 6.0
     WIRES Comput. Molec. Sci. 2025 15(1), e70019
     doi.org/10.1002/wcms.70019

List of papers to cite with high priority. The work reported in these papers was absolutely
necessary for this run to complete.
Our perspective: the developers of density functionals and basis sets usually get cited in chemistry papers
Good! But without the algorithms to do something with them, the functionals or basis sets would not do anything.
Hence, in our opinion, the algorithm design and method developments papers are equally worthy of getting cited

  1. Neese, F.
     An improvement of the resolution of the identity approximation for the formation of the Coulomb matrix
     J. Comp. Chem. 2003 24(14), 1740-1747
     doi.org/10.1002/jcc.10318
  2. Neese, F.; Wennmohs, F.; Hansen, A.; Becker, U.
     Efficient, approximate and parallel Hartree-Fock and hybrid DFT calculations. A 'chain-of-spheres' algorithm for the Hartree-Fock exchange
     Chem. Phys. 2009 356(1-3), 98-109
     doi.org/10.1016/j.chemphys.2008.10.036
  3. Bykov, D.; Petrenko, T.; Izsak, R.; Kossmann, S.; Becker, U.; Valeev, E.; Neese, F.
     Efficient implementation of the analytic second derivatives of Hartree-Fock and hybrid DFT energies: a detailed analysis of different approximations
     Molec. Phys. 2015 113 , 1961-1977
     doi.org/10.1080/00268976.2015.1025114
  4. Helmich-Paris, B.; de Souza, B.; Neese, F.; Izsák, R.
     An improved chain of spheres for exchange algorithm
     J. Chem. Phys. 2021 155(10), 104109
     doi.org/10.1063/5.0058766
  5. Neese, F.
     The SHARK Integral Generation and Digestion System
     J. Comp. Chem. 2022 44(3), 381
     doi.org/10.1002/jcc.26942

List of suggested additional citations. These are papers that are important in the 'surrounding' of 
of this run, or papers that preceded the highly important papers. If you like your results we are grateful for a citation.

  1. Izsak, R.; Neese, F.
     An overlap fitted chain of spheres exchange method
     J. Chem. Phys. 2011 135 , 144105
     doi.org/10.1063/1.3646921
  2. Izsak, R.; Hansen, A.; Neese, F.
     The resolution of identity and chain of spheres approximations for the LPNO-CCSD singles Fock term
     Molec. Phys. 2012 110 , 2413-2417
     doi.org/10.1080/00268976.2012.687466
  3. Neese, F.
     The ORCA program system
     WIRES Comput. Molec. Sci. 2012 2(1), 73-78
     doi.org/10.1002/wcms.81
  4. Izsak, R.; Neese, F.; Klopper, W.
     Robust fitting techniques in the chain of spheres approximation to the Fock exchange: The role of the complementary space
     J. Chem. Phys. 2013 139 , 
     doi.org/10.1063/1.4819264
  5. Neese, F.
     Software update: the ORCA program system, version 4.0
     WIRES Comput. Molec. Sci. 2018 8(1), 1-6
     doi.org/10.1002/wcms.1327
  6. Neese, F.; Wennmohs, F.; Becker, U.; Riplinger, C.
     The ORCA quantum chemistry program package
     J. Chem. Phys. 2020 152(22), 224108
     doi.org/10.1063/5.0004608
  7. Neese, F.
     Software update: The ORCA program system—Version 5.0
     WIRES Comput. Molec. Sci. 2022 12(1), e1606
     doi.org/10.1002/wcms.1606

List of optional additional citations

  1. Neese, F.
     Approximate second-order SCF convergence for spin unrestricted wavefunctions
     Chem. Phys. Lett. 2000 325(1-3), 93-98
     doi.org/10.1016/s0009-2614(00)00662-x

Timings for individual modules:

Sum of individual times          ...     1354.439 sec (=  22.574 min)
Startup calculation              ...       24.054 sec (=   0.401 min)   1.8 %
SCF iterations                   ...      489.206 sec (=   8.153 min)  36.1 %
Property integrals               ...      115.895 sec (=   1.932 min)   8.6 %
SCF Response                     ...       82.801 sec (=   1.380 min)   6.1 %
Property calculations            ...      314.928 sec (=   5.249 min)  23.3 %
SCF Gradient evaluation          ...      327.472 sec (=   5.458 min)  24.2 %
Geometry relaxation              ...        0.083 sec (=   0.001 min)   0.0 %
                             ****ORCA TERMINATED NORMALLY****
TOTAL RUN TIME: 0 days 0 hours 22 minutes 36 seconds 605 msec
