
                                 *****************
                                 * O   R   C   A *
                                 *****************

                                            #,                                       
                                            ###                                      
                                            ####                                     
                                            #####                                    
                                            ######                                   
                                           ########,                                 
                                     ,,################,,,,,                         
                               ,,#################################,,                 
                          ,,##########################################,,             
                       ,#########################################, ''#####,          
                    ,#############################################,,   '####,        
                  ,##################################################,,,,####,       
                ,###########''''           ''''###############################       
              ,#####''   ,,,,##########,,,,          '''####'''          '####       
            ,##' ,,,,###########################,,,                        '##       
           ' ,,###''''                  '''############,,,                           
         ,,##''                                '''############,,,,        ,,,,,,###''
      ,#''                                            '''#######################'''  
     '                                                          ''''####''''         
             ,#######,   #######,   ,#######,      ##                                
            ,#'     '#,  ##    ##  ,#'     '#,    #''#        ,####,    ,#,          
            ##       ##  ##   ,#'  ##            #'  '#       #'       ,# #          
            ##       ##  #######   ##           ,######,      #####,      #          
            '#,     ,#'  ##    ##  '#,     ,#' ,#      #,     #,   #      #          
             '#######'   ##     ##  '#######'  #'      '#     '####' #    #          



                #########################################################
                #                        -***-                          #
                #          Department of theory and spectroscopy        #
                #                                                       #
                #                      Frank Neese                      #
                #                                                       #
                #     Directorship, Architecture, Infrastructure        #
                #                    SHARK, DRIVERS                     #
                #        Core code/Algorithms in most modules           #
                #                                                       #
                #        Max Planck Institute fuer Kohlenforschung      #
                #                Kaiser Wilhelm Platz 1                 #
                #                 D-45470 Muelheim/Ruhr                 #
                #                      Germany                          #
                #                                                       #
                #                  All rights reserved                  #
                #                        -***-                          #
                #########################################################


                         Program Version 6.1.1  -  RELEASE   -
                                (GIT: $487d211c$)
                          ($2025-11-21 10:33:24 +0100$)


 With contributions from (in alphabetic order):
[Max-Planck-Institut fuer Kohlenforschung]                               
  Daniel Aravena         : Magnetic Suceptibility                        
  Michael Atanasov       : Ab Initio Ligand Field Theory (pilot matlab implementation)
  Alexander A. Auer      : GIAO ZORA, VPT2 properties, NMR spectrum      
  Ute Becker             : All parallelization in ORCA, NUMFREQ, NUMCALC 
  Giovanni Bistoni       : ED, misc. LED, open-shell LED, HFLD           
  Dmytro Bykov           : pre 5.0 version of the SCF Hessian            
  Marcos Casanova-Páez   : Triplet and SCS-CIS(D). UHF-(DLPNO)-IP/EA/STEOM-CCSD. UHF-CVS-IP/STEOM-CCSD   
  Vijay G. Chilkuri      : MRCI spin determinant printing, contributions to CSF-ICE 
  Pauline Colinet        : FMM embedding                                 
  Dipayan Datta          : RHF DLPNO-CCSD density                        
  Achintya Kumar Dutta   : EOM-CC, STEOM-CC                              
  Nicolas Foglia         : Exact transition moments, OPA infrastructure, MCD improvements    
  Dmitry Ganyushin       : Spin-Orbit,Spin-Spin,Magnetic field MRCI      
  Miquel Garcia-Rates    : C-PCM and meta-GGA Hessian, CCSD/C-PCM, Gaussian charge scheme 
  Tiago L. C. Gouveia    : GS-ROHF, GS-ROCIS                             
  Yang Guo               : DLPNO-NEVPT2, F12-NEVPT2, CIM, IAO-localization        
  Andreas Hansen         : Spin unrestricted coupled pair/coupled cluster methods 
  Ingolf Harden          : AUTO-CI MPn and infrastructure                
  Benjamin Helmich-Paris : MC-RPA, TRAH-(SCF,CASSCF), AVAS, COSX integrals, SCF dyn. polar., MC-PDFT, srDFT 
  Lee Huntington         : MR-EOM, pCC                                   
  Robert Izsak           : Overlap fitted RIJCOSX, COSX-SCS-MP3, EOM     
  Riya Kayal             : Wick's Theorem for AUTO-CI, AUTO-CI UHF-CCSDT 
  Emily Kempfer          : AUTO-CI RHF CISDT and CCSDT, approximate NEVPT4
  Christian Kollmar      : KDIIS, OOCD, Brueckner-CCSD(T), CCSD density, CASPT2, CASPT2-K, improved NEVPT2 
  Axel Koslowski         : Symmetry handling                             
  Simone Kossmann        : meta-GGA functionals, TD-DFT gradient, OOMP2, (MP2 Hessian; deprecated post 5.0) 
  Lucas Lang             : DCDCAS, Hyperfine gauge corrections, ICE-SOC+SSC
  Marvin Lechner         : AUTO-CI (C++ implementation), FIC-MRCC        
  Spencer Leger          : CASSCF response                               
  Dagmar Lenk            : GEPOL surface, SMD, ORCA-2-JSON               
  Dimitrios Liakos       : Extrapolation schemes; Compound Job, Property file
  Dimitrios Manganas     : Further ROCIS development; embedding schemes. LFT, Crystal Embedding 
  Dimitrios Pantazis     : SARC Basis sets                               
  Anastasios Papadopoulos: AUTO-CI, single reference methods and gradients 
  Taras Petrenko         : pre 6.0 DFT Hessian and TD-DFT gradient,  ECA, NRVS 
  Petra Pikulova         : Analytic Raman intensities                    
  Peter Pinski           : DLPNO-MP2, DLPNO-MP2 Gradient                 
  Shashank Vittal Rao    : ES-AILFT, MagRelax                            
  Christoph Reimann      : Effective Core Potentials                     
  Marius Retegan         : Local ZFS, SOC                                
  Christoph Riplinger    : Optimizer, TS searches, QM/MM, DLPNO-CCSD(T), (RO)-DLPNO pert. Triples 
  Michael Roemelt        : Original ROCIS implementation, recursive CI coupling coefficients
  Masaaki Saitow         : Open-shell DLPNO-CCSD energy and density      
  Barbara Sandhoefer     : DKH picture change effects                    
  Yorick L. A. Schmerwitz: GMF and freeze-and-release deltaSCF, NEB S-IDPP initial path                    
  Kantharuban Sivalingam : CASSCF convergence/infrastructure, NEVPT2, NEVPT3, NEVPT4(SD), FIC-MRCI and CEPA variants
  Bernardo de Souza      : ESD, SOC TD-DFT                               
  Georgi L. Stoychev     : AutoAux, RI-MP2 NMR, DLPNO-MP2 response, X2C  
  Van Anh Tran           : RI-MP2 g-tensors                              
  Willem Van den Heuvel  : Paramagnetic NMR                              
  Zikuan Wang            : NOTCH, Electric field optimization            
  Frank Wennmohs         : Technical directorship and infrastructure     
  Hang Xu                : AUTO-CI-Response properties                   
                                                                         
[FACCTs GmbH]                                                            
  Markus Bursch, Nicolas Foglia, Miquel Garcia-Rates, Ingolf Harden, Hagen Neugebauer, Anastasios Papadopoulos, 
  Christoph Riplinger, Bernardo de Souza, Georgi L. Stoychev                                                    
                                                                 
  APM, various basis sets, CI-OPT, improved COSX, DLPNO-Multilevel,           
  DOCKER, DRACO, updates on ESD, Fragmentator, GOAT, IRC, LR-CPCM, L-BFGS, MBIS, meta-GGA TD-DFT gradient, ML-optimized integration grids, 
  MM, NACMEs, nearIR, NEB, NEB-TS, NL-DFT gradient (VV10), 2- and 3-layer-ONIOM, interface openCOSMO-RS, QMMM,   
  Crystal-QMMM, RESP, rigid body optimization, SF, symmetry and pop. for TD-DFT, various functionals, SOLVATOR                                   
                                                                         
[Other institutions]                                                     
  V. Asgeirsson          : NEB                                           
  Christoph Bannwarth    : sTDA-DFT, sTD-DFT, PBEh-3c, B97-3c, D3        
  Giovanni Bistoni       : ETS/NOCV, ADLD/ADEX, COVALED                  
  Martin Brehm           : Molecular dynamics                            
  Ronald Cardenas        : ETS/NOCV                                      
  Martina Colucci        : COVALED                                       
  Sebastian Ehlert       : rSCAN, r2SCAN, r2SCAN-3c, D4, dhf basis sets  
  Marvin Friede          : D4 for Fr, Ra, Ac-Lr                          
  Lars Goerigk           : TD-DFT with DH, B97 family of functionals     
  Stefan Grimme          : VdW corrections, initial TS optimization, DFT functionals, gCP, sTDA/sTD-DF 
  Waldemar Hujo          : DFT-NL                                        
  H. Jonsson             : NEB                                           
  Holger Kruse           : gCP                                           
  Marcel Mueller         : wB97X-3c, vDZP basis set                      
  Hagen Neugebauer       : wr2SCAN, Native XTB                           
  Gianluca Regni         : ADLD/ADEX                                     
  Tobias Risthaus        : pre 6.0 range-separated hybrid DFT and stability analysis
  Lukas Wittmann         : regularized MP2, r2SCAN double-hybrids, wr2SCAN        
                                                                         
We gratefully acknowledge several colleagues who have allowed us to      
interface, adapt or use parts of their codes:                            
  Ed Valeev, F. Pavosevic, A. Kumar             : LibInt (2-el integral package), F12 methods 
  Garnet Chan, S. Sharma, J. Yang, R. Olivares  : DMRG                   
  Ulf Ekstrom                                   : XCFun DFT Library      
  Mihaly Kallay                                 : mrcc  (arbitrary order and MRCC methods)
  Frank Weinhold                                : gennbo (NPA and NBO analysis)           
  Simon Mueller                                 : openCOSMO-RS                            
  Christopher J. Cramer and Donald G. Truhlar   : smd solvation model                     
  S Lehtola, MJT Oliveira, MAL Marques          : LibXC Library                           
  Liviu Ungur et al                             : ANISO software                          


 Your calculation uses the libint2 library for the computation of 2-el integrals
 For citations please refer to: http://libint.valeyev.net

 Your ORCA version has been built with support for libXC version: 7.0.0
 For citations please refer to: https://libxc.gitlab.io

 This ORCA versions uses:
   CBLAS   interface :  Fast vector & matrix operations
   LAPACKE interface :  Fast linear algebra routines
   SCALAPACK package :  Parallel linear algebra routines
   Shared memory     :  Shared parallel matrices
   BLAS/LAPACK       :  OpenBLAS 0.3.29  USE64BITINT DYNAMIC_ARCH NO_AFFINITY Cooperlake SINGLE_THREADED
        Core in use  :  Cooperlake
   Copyright (c) 2011-2014, The OpenBLAS Project


  ***********************************
  * Starting time: Sat Feb  7 14:41:09 2026
  * Host name:     Breado
  * Process ID:    4574
  * Working dir.:  /home/bread/IR_LAB_2027/data/HFE-347pcf2/B3LYP_6_31Gd/ORCA_files
  ***********************************

Warning: RI is on but no J-basis has been assigned. Assigning Def2/J (nothing to worry about!)
================================================================================

----- Orbital basis set information -----
Your calculation utilizes the basis: 6-31G(d)
   H-He, Li-Ne : W. J. Hehre, R. Ditchfield and J.A. Pople, J. Chem. Phys. 56, 2257 (1972).
                 Note: He and Ne are unpublished basis sets taken from the Gaussian program.
                 Note: Li and B from J. D. Dill and J. A. Pople, J. Chem. Phys. 62, 2921 (1975).
   Na - Ar     : M. M. Francl, W. J. Pietro, W. J. Hehre, J. S. Binkley, M. S. Gordon, 
                 D. J. DeFrees and J. A. Pople, J. Chem. Phys. 77, 3654 (1982).
   K - Zn      : V. A. Rassolov, J. A. Pople, M. A. Ratner, and T. L. Windus, J. Chem. Phys. 109, 1223 (1998).

----- AuxJ basis set information -----
Your calculation utilizes the auxiliary basis: def2/J
   H-Rn: F. Weigend, Phys. Chem. Chem. Phys. 8, 1057 (2006).
   Fr-Lr: K. Eichkorn, F. Weigend, O. Treutler, R. Ahlrichs; Theor. Chem. Acc. 97, 119 (1997).

================================================================================
                                        WARNINGS
                       Please study these warnings very carefully!
================================================================================


WARNING: Geometry Optimization
  ===> : Switching off AutoStart
         For restart on a previous wavefunction, please use MOREAD

================================================================================
                                       INPUT FILE
================================================================================
NAME = HFE_347pcf2_anti.inp
|  1> # avogadro generated ORCA input file 
|  2> # Basic Mode
|  3> # 
|  4> ! B3LYP 6-31G(d) OPT FREQ 
|  5> 
|  6> * xyz 0 1
|  7>    F        1.28530       -1.62240        0.56030
|  8>    F        1.38880       -0.59790       -1.37380
|  9>    F        2.29800        1.67070       -0.14090
| 10>    F        3.53230       -0.08800        0.20960
| 11>    F       -2.56250        0.28010        1.34490
| 12>    F       -3.46870       -0.64150       -0.41230
| 13>    F       -2.46550        1.29230       -0.58450
| 14>    O       -0.03940        0.17810        0.20870
| 15>    C        1.23030       -0.41010       -0.04230
| 16>    C       -1.11330       -0.61630       -0.27520
| 17>    C        2.32920        0.47050        0.48930
| 18>    C       -2.41470        0.08470        0.01630
| 19>    H       -1.10420       -1.59410        0.21820
| 20>    H       -1.01120       -0.76410       -1.35560
| 21>    H        2.25350        0.63630        1.56730
| 22> *
| 23> 
| 24> 
| 25>                          ****END OF INPUT****
================================================================================

                       *****************************
                       * Geometry Optimization Run *
                       *****************************

Geometry optimization settings:
Update method            Update   .... BFGS
Choice of coordinates    CoordSys .... (2022) Redundant Internals
Initial Hessian          InHess   .... Almloef's Model
Max. no of cycles        MaxIter  .... 50

Convergence Tolerances:
Energy Change            TolE     ....  5.0000e-06 Eh
Max. Gradient            TolMAXG  ....  3.0000e-04 Eh/bohr
RMS Gradient             TolRMSG  ....  1.0000e-04 Eh/bohr
Max. Displacement        TolMAXD  ....  4.0000e-03 bohr
RMS Displacement         TolRMSD  ....  2.0000e-03 bohr
Strict Convergence                .... False

------------------------------------------------------------------------------
                        ORCA OPTIMIZATION COORDINATE SETUP
------------------------------------------------------------------------------

The optimization will be done in redundant internal coordinates (2022)
Making redundant internal coordinates   ...  (2022 redundants) done
Evaluating the initial hessian          ...  (Almloef) done
Evaluating the coordinates              ...  done
Calculating the B-matrix                .... done
Calculating the G-matrix                .... done
The number of degrees of freedom        ....   57

    -----------------------------------------------------------------
                    Redundant Internal Coordinates


    -----------------------------------------------------------------
         Definition                    Initial Value    Approx d2E/dq
    -----------------------------------------------------------------
      1. B(C   8,F   1)                  1.3540         0.593501   
      2. B(C   8,O   7)                  1.4217         0.498154   
      3. B(C   8,F   0)                  1.3549         0.591461   
      4. B(C   9,O   7)                  1.4207         0.499848   
      5. B(C  10,F   3)                  1.3556         0.590035   
      6. B(C  10,C   8)                  1.5052         0.409204   
      7. B(C  10,F   2)                  1.3560         0.589235   
      8. B(C  11,F   6)                  1.3498         0.602802   
      9. B(C  11,F   5)                  1.3498         0.602686   
     10. B(C  11,C   9)                  1.5067         0.407024   
     11. B(C  11,F   4)                  1.3510         0.600049   
     12. B(H  12,C   9)                  1.0953         0.353194   
     13. B(H  13,C   9)                  1.0952         0.353245   
     14. B(H  14,C  10)                  1.0933         0.355761   
     15. A(C   8,O   7,C   9)          112.5571         0.396640   
     16. A(F   1,C   8,C  10)          110.0593         0.395722   
     17. A(F   1,C   8,O   7)          109.6064         0.407047   
     18. A(O   7,C   8,C  10)          110.3420         0.385457   
     19. A(F   0,C   8,C  10)          109.6787         0.395483   
     20. A(F   0,C   8,F   1)          107.9693         0.417803   
     21. A(F   0,C   8,O   7)          109.1426         0.406799   
     22. A(H  12,C   9,H  13)          108.8524         0.289084   
     23. A(C  11,C   9,H  13)          109.5217         0.327889   
     24. A(O   7,C   9,H  13)          109.9364         0.337200   
     25. A(C  11,C   9,H  12)          109.5961         0.327881   
     26. A(O   7,C   9,H  12)          109.8442         0.337192   
     27. A(O   7,C   9,C  11)          109.0777         0.385327   
     28. A(F   3,C  10,H  14)          109.1096         0.345669   
     29. A(F   2,C  10,H  14)          108.8104         0.345590   
     30. A(F   2,C  10,F   3)          106.8101         0.417087   
     31. A(F   3,C  10,C   8)          109.5141         0.395316   
     32. A(C   8,C  10,H  14)          112.7309         0.328563   
     33. A(F   2,C  10,C   8)          109.6878         0.395222   
     34. A(F   4,C  11,C   9)          110.6131         0.396113   
     35. A(F   5,C  11,F   6)          108.0963         0.420369   
     36. A(F   4,C  11,F   6)          107.7112         0.420040   
     37. A(F   4,C  11,F   5)          107.7371         0.420026   
     38. A(F   6,C  11,C   9)          111.2635         0.396432   
     39. A(F   5,C  11,C   9)          111.2676         0.396418   
     40. D(F   1,C   8,O   7,C   9)     58.6402         0.019614   
     41. D(F   0,C   8,O   7,C   9)    -59.4143         0.019614   
     42. D(C  10,C   8,O   7,C   9)    179.9982         0.019614   
     43. D(H  13,C   9,O   7,C   8)    -59.2366         0.019752   
     44. D(H  12,C   9,O   7,C   8)     60.5210         0.019752   
     45. D(C  11,C   9,O   7,C   8)   -179.3404         0.019752   
     46. D(F   2,C  10,C   8,F   0)    178.2766         0.013266   
     47. D(F   3,C  10,C   8,O   7)   -178.3733         0.013266   
     48. D(F   3,C  10,C   8,F   1)    -57.2848         0.013266   
     49. D(F   3,C  10,C   8,F   0)     61.3607         0.013266   
     50. D(F   2,C  10,C   8,O   7)    -61.4574         0.013266   
     51. D(F   2,C  10,C   8,F   1)     59.6311         0.013266   
     52. D(F   4,C  11,C   9,H  13)   -179.9158         0.013129   
     53. D(F   4,C  11,C   9,H  12)     60.7346         0.013129   
     54. D(F   4,C  11,C   9,O   7)    -59.5568         0.013129   
     55. D(F   5,C  11,C   9,H  13)     60.3697         0.013129   
     56. D(F   5,C  11,C   9,H  12)    -58.9800         0.013129   
     57. D(F   5,C  11,C   9,O   7)   -179.2714         0.013129   
    -----------------------------------------------------------------

Number of atoms                         .... 15
Number of degrees of freedom            .... 57


         *************************************************************
         *                GEOMETRY OPTIMIZATION CYCLE   1            *
         *************************************************************
---------------------------------
CARTESIAN COORDINATES (ANGSTROEM)
---------------------------------
  F      1.285300   -1.622400    0.560300
  F      1.388800   -0.597900   -1.373800
  F      2.298000    1.670700   -0.140900
  F      3.532300   -0.088000    0.209600
  F     -2.562500    0.280100    1.344900
  F     -3.468700   -0.641500   -0.412300
  F     -2.465500    1.292300   -0.584500
  O     -0.039400    0.178100    0.208700
  C      1.230300   -0.410100   -0.042300
  C     -1.113300   -0.616300   -0.275200
  C      2.329200    0.470500    0.489300
  C     -2.414700    0.084700    0.016300
  H     -1.104200   -1.594100    0.218200
  H     -1.011200   -0.764100   -1.355600
  H      2.253500    0.636300    1.567300

----------------------------
CARTESIAN COORDINATES (A.U.)
----------------------------
  NO LB      ZA    FRAG     MASS         X           Y           Z
   0 F     9.0000    0    18.998    2.428865   -3.065892    1.058814
   1 F     9.0000    0    18.998    2.624452   -1.129867   -2.596106
   2 F     9.0000    0    18.998    4.342591    3.157165   -0.266262
   3 F     9.0000    0    18.998    6.675080   -0.166296    0.396087
   4 F     9.0000    0    18.998   -4.842423    0.529312    2.541493
   5 F     9.0000    0    18.998   -6.554893   -1.212259   -0.779134
   6 F     9.0000    0    18.998   -4.659120    2.442093   -1.104545
   7 O     8.0000    0    15.999   -0.074455    0.336560    0.394386
   8 C     6.0000    0    12.011    2.324930   -0.774977   -0.079935
   9 C     6.0000    0    12.011   -2.103832   -1.164638   -0.520053
  10 C     6.0000    0    12.011    4.401550    0.889116    0.924643
  11 C     6.0000    0    12.011   -4.563122    0.160060    0.030803
  12 H     1.0000    0     1.008   -2.086636   -3.012412    0.412338
  13 H     1.0000    0     1.008   -1.910891   -1.443940   -2.561713
  14 H     1.0000    0     1.008    4.258498    1.202433    2.961768

--------------------------------
INTERNAL COORDINATES (ANGSTROEM)
--------------------------------
 F      0   0   0     0.000000000000     0.00000000     0.00000000
 F      1   0   0     2.191131057240     0.00000000     0.00000000
 F      2   1   0     2.737377031028    90.32221911     0.00000000
 F      3   2   1     2.177009974713    65.87822430    57.47134963
 F      1   2   3     4.363561418154    89.80003295    81.40692274
 F      5   1   2     2.181352066953    92.13639085    60.38889849
 F      5   1   2     2.180949838946    90.23279504     0.27539853
 O      1   2   3     2.262797582640    61.21372454    63.40901423
 C      2   1   3     1.353987939385    36.02974168   332.88082369
 C      8   1   2     1.420736351333    92.89588178    91.36341887
 C      4   3   2     1.355582513165    36.60073560   290.26676087
 C      7   5   1     1.349755177801    36.16371501    54.82331469
 H     10   8   1     1.095271295159   109.84416045    31.33842367
 H     10   8   1     1.095232126081   109.93641604   271.58082554
 H     11   4   3     1.093299652428   109.10960233   242.53891516

---------------------------
INTERNAL COORDINATES (A.U.)
---------------------------
 F      0   0   0     0.000000000000     0.00000000     0.00000000
 F      1   0   0     4.140637621712     0.00000000     0.00000000
 F      2   1   0     5.172892913929    90.32221911     0.00000000
 F      3   2   1     4.113952643022    65.87822430    57.47134963
 F      1   2   3     8.245936048856    89.80003295    81.40692274
 F      5   1   2     4.122158008204    92.13639085    60.38889849
 F      5   1   2     4.121397907428    90.23279504     0.27539853
 O      1   2   3     4.276067727688    61.21372454    63.40901423
 C      2   1   3     2.558666394070    36.02974168   332.88082369
 C      8   1   2     2.684802612527    92.89588178    91.36341887
 C      4   3   2     2.561679701815    36.60073560   290.26676087
 C      7   5   1     2.550667633886    36.16371501    54.82331469
 H     10   8   1     2.069762790196   109.84416045    31.33842367
 H     10   8   1     2.069688771365   109.93641604   271.58082554
 H     11   4   3     2.066036925401   109.10960233   242.53891516

---------------------
BASIS SET INFORMATION
---------------------
There are 4 groups of distinct atoms

 Group   1 Type F   : 10s4p1d contracted to 3s2p1d pattern {631/31/1}
 Group   2 Type O   : 10s4p1d contracted to 3s2p1d pattern {631/31/1}
 Group   3 Type C   : 10s4p1d contracted to 3s2p1d pattern {631/31/1}
 Group   4 Type H   : 4s contracted to 2s pattern {31}

Atom   0F    basis set group =>   1
Atom   1F    basis set group =>   1
Atom   2F    basis set group =>   1
Atom   3F    basis set group =>   1
Atom   4F    basis set group =>   1
Atom   5F    basis set group =>   1
Atom   6F    basis set group =>   1
Atom   7O    basis set group =>   2
Atom   8C    basis set group =>   3
Atom   9C    basis set group =>   3
Atom  10C    basis set group =>   3
Atom  11C    basis set group =>   3
Atom  12H    basis set group =>   4
Atom  13H    basis set group =>   4
Atom  14H    basis set group =>   4
---------------------------------
AUXILIARY/J BASIS SET INFORMATION
---------------------------------
There are 4 groups of distinct atoms

 Group   1 Type F   : 12s5p4d2f1g contracted to 6s4p3d1f1g pattern {711111/2111/211/2/1}
 Group   2 Type O   : 12s5p4d2f1g contracted to 6s4p3d1f1g pattern {711111/2111/211/2/1}
 Group   3 Type C   : 12s5p4d2f1g contracted to 6s4p3d1f1g pattern {711111/2111/211/2/1}
 Group   4 Type H   : 5s2p1d contracted to 3s1p1d pattern {311/2/1}

Atom   0F    basis set group =>   1
Atom   1F    basis set group =>   1
Atom   2F    basis set group =>   1
Atom   3F    basis set group =>   1
Atom   4F    basis set group =>   1
Atom   5F    basis set group =>   1
Atom   6F    basis set group =>   1
Atom   7O    basis set group =>   2
Atom   8C    basis set group =>   3
Atom   9C    basis set group =>   3
Atom  10C    basis set group =>   3
Atom  11C    basis set group =>   3
Atom  12H    basis set group =>   4
Atom  13H    basis set group =>   4
Atom  14H    basis set group =>   4
------------------------------------------------------------------------------
                             ORCA STARTUP CALCULATIONS
                           -- RI-GTO INTEGRALS CHOSEN --
------------------------------------------------------------------------------
------------------------------------------------------------------------------
                   ___                                                        
                  /   \      - P O W E R E D   B Y -                         
                 /     \                                                     
                 |  |  |   _    _      __       _____    __    __             
                 |  |  |  | |  | |    /  \     |  _  \  |  |  /  |          
                  \  \/   | |  | |   /    \    | | | |  |  | /  /          
                 / \  \   | |__| |  /  /\  \   | |_| |  |  |/  /          
                |  |  |   |  __  | /  /__\  \  |    /   |      \           
                |  |  |   | |  | | |   __   |  |    \   |  |\   \          
                \     /   | |  | | |  |  |  |  | |\  \  |  | \   \       
                 \___/    |_|  |_| |__|  |__|  |_| \__\ |__|  \__/        
                                                                              
                      - O R C A' S   B I G   F R I E N D -                    
                                      &                                       
                       - I N T E G R A L  F E E D E R -                       
                                                                              
 v1 FN, 2020, v2 2021, v3 2022-2024                                           
------------------------------------------------------------------------------


----------------------
SHARK INTEGRAL PACKAGE
----------------------

Number of atoms                             ...     15
Number of basis functions                   ...    174
Number of shells                            ...     78
Maximum angular momentum                    ...      2
Integral batch strategy                     ... SHARK/LIBINT Hybrid
RI-J (if used) integral strategy            ... SPLIT-RIJ (Revised 2003 algorithm where possible)
Printlevel                                  ...      1
Contraction scheme used                     ... SEGMENTED contraction
Prescreening option                         ... SCHWARTZ
   Thresh                                   ... 2.500e-11
   Tcut                                     ... 2.500e-12
   Tpresel                                  ... 2.500e-12 
Coulomb Range Separation                    ... NOT USED
Exchange Range Separation                   ... NOT USED
Multipole approximations                    ... NOT USED
Finite Nucleus Model                        ... NOT USED
CABS basis                                  ... NOT available
Auxiliary Coulomb fitting basis             ... AVAILABLE
   # of basis functions in Aux-J            ...    621
   # of shells in Aux-J                     ...    195
   Maximum angular momentum in Aux-J        ...      4
Auxiliary J/K fitting basis                 ... NOT available
Auxiliary Correlation fitting basis         ... NOT available
Auxiliary 'external' fitting basis          ... NOT available

Checking pre-screening integrals            ... done (  0.0 sec) Dimension = 78
   => SHARK Basis and OBASIS are compatible. Storing Pre-screening
Shell pair information
Shell pair cut-off parameter TPreSel        ...   2.5e-12
Total number of shell pairs                 ...      3081
Shell pairs after pre-screening             ...      2532
Total number of primitive shell pairs       ...     18789
Primitive shell pairs kept                  ...      9218
          la=0 lb=0:    704 shell pairs
          la=1 lb=0:    850 shell pairs
          la=1 lb=1:    272 shell pairs
          la=2 lb=0:    395 shell pairs
          la=2 lb=1:    247 shell pairs
          la=2 lb=2:     64 shell pairs

Checking whether 4 symmetric matrices of dimension 174 fit in memory
:Max Core in MB      =   4096.00
 MB in use           =      7.04
 MB left             =   4088.96
 MB needed           =      0.46
 Data fit in memory  = YES
Calculating RI/J V-Matrix + Cholesky decomp.... done (  0.1 sec)
Calculating Nuclear repulsion               ... done (  0.0 sec) ENN=    840.796475296706 Eh

Diagonalization of the overlap matrix:
Smallest eigenvalue                        ... 3.400e-03
Time for diagonalization                   ...    0.014 sec
Threshold for overlap eigenvalues          ... 1.000e-07
Number of eigenvalues below threshold      ... 0
Time for construction of square roots      ...    0.004 sec
Total time needed                          ...    0.019 sec

-------------------
DFT GRID GENERATION
-------------------

General Integration Accuracy     IntAcc      ... 4.388
Radial Grid Type                 RadialGrid  ... OptM3 with GC (2021)
Angular Grid (max. ang.)         AngularGrid ... 4 (Lebedev-302)
Angular grid pruning method      GridPruning ... 4 (adaptive)
Weight generation scheme         WeightScheme... mBecke (2022)
Basis function cutoff            BFCut       ... 1.0000e-11
Integration weight cutoff        WCut        ... 1.0000e-14
Partially contracted basis set               ... off
Rotationally invariant grid construction     ... off
Angular grids for H and He will be reduced by one unit

Total number of grid points                  ...    82588
Total number of batches                      ...     1298
Average number of points per batch           ...       63
Average number of grid points per atom       ...     5506

--------------------
COSX GRID GENERATION
--------------------

GRIDX 1
-------
General Integration Accuracy     IntAcc      ... 3.816
Radial Grid Type                 RadialGrid  ... OptM3 with GC (2021)
Angular Grid (max. ang.)         AngularGrid ... 1 (Lebedev-50)
Angular grid pruning method      GridPruning ... 4 (adaptive)
Weight generation scheme         WeightScheme... mBecke (2022)
Basis function cutoff            BFCut       ... 1.0000e-11
Integration weight cutoff        WCut        ... 1.0000e-14
Partially contracted basis set               ... on
Rotationally invariant grid construction     ... off
Angular grids for H and He will be reduced by one unit

Total number of grid points                  ...    10449
Total number of batches                      ...       90
Average number of points per batch           ...      116
Average number of grid points per atom       ...      697
UseSFitting                                  ... on

GRIDX 2
-------
General Integration Accuracy     IntAcc      ... 4.020
Radial Grid Type                 RadialGrid  ... OptM3 with GC (2021)
Angular Grid (max. ang.)         AngularGrid ... 2 (Lebedev-110)
Angular grid pruning method      GridPruning ... 4 (adaptive)
Weight generation scheme         WeightScheme... mBecke (2022)
Basis function cutoff            BFCut       ... 1.0000e-11
Integration weight cutoff        WCut        ... 1.0000e-14
Partially contracted basis set               ... on
Rotationally invariant grid construction     ... off
Angular grids for H and He will be reduced by one unit

Total number of grid points                  ...    24259
Total number of batches                      ...      196
Average number of points per batch           ...      123
Average number of grid points per atom       ...     1617
UseSFitting                                  ... on

GRIDX 3
-------
General Integration Accuracy     IntAcc      ... 4.338
Radial Grid Type                 RadialGrid  ... OptM3 with GC (2021)
Angular Grid (max. ang.)         AngularGrid ... 3 (Lebedev-194)
Angular grid pruning method      GridPruning ... 4 (adaptive)
Weight generation scheme         WeightScheme... mBecke (2022)
Basis function cutoff            BFCut       ... 1.0000e-11
Integration weight cutoff        WCut        ... 1.0000e-14
Partially contracted basis set               ... on
Rotationally invariant grid construction     ... off
Angular grids for H and He will be reduced by one unit

Total number of grid points                  ...    53583
Total number of batches                      ...      427
Average number of points per batch           ...      125
Average number of grid points per atom       ...     3572
UseSFitting                                  ... on
Grids setup in   1.9 sec
Initializing property integral containers    ... done (  0.0 sec)

SHARK setup successfully completed in   2.3 seconds

Maximum memory used throughout the entire STARTUP-calculation: 33.7 MB
-------------------------------------------------------------------------------
                                 ORCA GUESS
                   Start orbitals & Density for SCF / CASSCF
-------------------------------------------------------------------------------

------------
SCF SETTINGS
------------
Hamiltonian:
 Density Functional     Method          .... DFT(GTOs)
 Exchange Functional    Exchange        .... B88
   X-Alpha parameter    XAlpha          ....  0.666667
   Becke's b parameter  XBeta           ....  0.004200
 Correlation Functional Correlation     .... LYP
 LDA part of GGA corr.  LDAOpt          .... VWN-5
 Gradients option       PostSCFGGA      .... off
 Hybrid DFT is turned on
   Fraction HF Exchange ScalHFX         ....  0.200000
   Scaling of DF-GGA-X  ScalDFX         ....  0.720000
   Scaling of DF-GGA-C  ScalDFC         ....  0.810000
   Scaling of DF-LDA-C  ScalLDAC        ....  1.000000
   Perturbative correction              ....  0.000000
   NL short-range parameter             ....  4.800000
 RI-approximation to the Coulomb term is turned on
   Number of AuxJ basis functions       .... 621
   RIJ-COSX (HFX calculated with COS-X)).... on


General Settings:
 Integral files         IntName         .... HFE_347pcf2_anti
 Hartree-Fock type      HFTyp           .... RHF
 Total Charge           Charge          ....    0
 Multiplicity           Mult            ....    1
 Number of Electrons    NEL             ....   98
 Basis Dimension        Dim             ....  174
 Nuclear Repulsion      ENuc            ....    840.7964752967 Eh

Convergence Acceleration:
 AO-DIIS                CNVDIIS         .... on
   Start iteration      DIISMaxIt       ....    12
   Startup error        DIISStart       ....  0.200000
   # of expansion vecs  DIISMaxEq       ....     5
   Bias factor          DIISBfac        ....   1.050
   Max. coefficient     DIISMaxC        ....  10.000
 MO-DIIS                CNVKDIIS        .... off
 Trust-Rad. Augm. Hess. CNVTRAH         .... auto
   Auto Start mean grad. ratio tolernc. ....  1.125000
   Auto Start start iteration           ....    50
   Auto Start num. interpolation iter.  ....    10
   Max. Number of Micro iterations      ....    24
   Max. Number of Macro iterations      .... Maxiter - #DIIS iter
   Number of Davidson start vectors     ....     2
   Converg. threshold    (grad. norm)   ....   1.000e-05
   Grad. Scal. Fac. for Micro threshold ....   0.100
   Minimum threshold for Micro iter.    ....   1.000e-02
   NR start threshold (gradient norm)   ....   1.000e-04
   Initial trust radius                 ....   0.400
   Minimum AH scaling param. (alpha)    ....   1.000
   Maximum AH scaling param. (alpha)    .... 1000.000
   Quad. conv. algorithm                .... NR
   White noise on init. David. guess    .... on
   Maximum white noise                  ....   0.010
   Pseudo random numbers                .... off
   Inactive MOs                         .... canonical
   Orbital update algorithm             .... Taylor
   Preconditioner                       .... Diag
   Full preconditioner red. dimension   ....   250
 SOSCF                 CNVSOSCF           .... on
   Start iteration     SOSCFMaxIt         ....   150
   Startup grad/error  SOSCFStart         ....  0.003300
   Hessian update      SOSCFHessUp        .... L-BFGS
   Autom. constraints  SOSCFAutoConstrain .... off
 Level Shifting         CNVShift        .... on
   Level shift para.    LevelShift      ....    0.2500
   Turn off err/grad.   ShiftErr        ....    0.0010
 Zerner damping         CNVZerner       .... off
 Static damping         CNVDamp         .... on
   Fraction old density DampFac         ....    0.7000
   Max. Damping (<1)    DampMax         ....    0.9800
   Min. Damping (>=0)   DampMin         ....    0.0000
   Turn off err/grad.   DampErr         ....    0.1000

SCF Procedure:
 Maximum # iterations   MaxIter         ....   125
 SCF integral mode      SCFMode         .... Direct
   Integral package                     .... SHARK and LIBINT hybrid scheme
 Reset frequency        DirectResetFreq ....    20
 Integral Threshold     Thresh          ....  2.500e-11 Eh
 Primitive CutOff       TCut            ....  2.500e-12 Eh

Convergence Tolerance:
 Convergence Check Mode ConvCheckMode   .... Total+1el-Energy
 Convergence forced     ConvForced      .... 0
 Energy Change          TolE            ....  1.000e-08 Eh
 1-El. energy change                    ....  1.000e-05 Eh
 Orbital Gradient       TolG            ....  1.000e-05
 Orbital Rotation angle TolX            ....  1.000e-05
 DIIS Error             TolErr          ....  5.000e-07

------------------------------
INITIAL GUESS: MODEL POTENTIAL
------------------------------
Loading Hartree-Fock densities                     ... done
Calculating cut-offs                               ... done
Initializing the effective Hamiltonian             ... done
Setting up the integral package (SHARK)            ... done
Starting the Coulomb interaction                   ... done (   0.1 sec)
Making the grid                                    ... done (   0.2 sec)
Mapping shells                                     ... done
Starting the XC term evaluation                    ... done (   0.2 sec)
  promolecular density results
     # of electrons  =     97.994546096
     EX              =   -100.068985353
     EC              =     -3.642484615
     EX+EC           =   -103.711469969
Transforming the Hamiltonian                       ... done (   0.0 sec)
Diagonalizing the Hamiltonian                      ... done (   0.0 sec)
Back transforming the eigenvectors                 ... done (   0.0 sec)
Now organizing SCF variables                       ... done
                      ------------------
                      INITIAL GUESS DONE (   0.6 sec)
                      ------------------
             **** ENERGY FILE WAS UPDATED (HFE_347pcf2_anti.en.tmp) ****
Finished Guess after   0.7 sec
Maximum memory used throughout the entire GUESS-calculation: 12.1 MB

-------------------------------------------------------------------------------------------
                                      ORCA LEAN-SCF
                              memory conserving SCF solver
-------------------------------------------------------------------------------------------

----------------------------------------D-I-I-S--------------------------------------------
Iteration    Energy (Eh)           Delta-E    RMSDP     MaxDP     DIISErr   Damp  Time(sec)
-------------------------------------------------------------------------------------------
               ***  Starting incremental Fock matrix formation  ***
    1    -927.7321038116143654     0.00e+00  2.61e-03  5.91e-02  1.80e-01  0.700   5.9
    2    -927.8352379177612193    -1.03e-01  1.43e-03  3.20e-02  7.35e-02  0.700   2.8
                               ***Turning on AO-DIIS***
    3    -927.8703117124738355    -3.51e-02  4.17e-04  9.32e-03  2.18e-02  0.700   2.7
    4    -927.8934615540150617    -2.31e-02  7.08e-04  1.24e-02  1.10e-02  0.000   2.5
                              *** Initializing SOSCF ***
---------------------------------------S-O-S-C-F--------------------------------------
Iteration    Energy (Eh)           Delta-E    RMSDP     MaxDP     MaxGrad    Time(sec)
--------------------------------------------------------------------------------------
    5    -927.9464625401388957    -5.30e-02  1.38e-04  3.07e-03  2.84e-03     2.6
               *** Restarting incremental Fock matrix formation ***
    6    -927.9466063769463062    -1.44e-04  5.76e-05  1.12e-03  2.95e-04     5.7
    7    -927.9466062808857032     9.61e-08  2.66e-05  5.62e-04  3.07e-04     1.7
    8    -927.9466114441325999    -5.16e-06  7.84e-06  1.67e-04  5.02e-05     3.9
    9    -927.9466114864084147    -4.23e-08  3.73e-06  9.47e-05  4.00e-05     3.6
   10    -927.9466115774888522    -9.11e-08  1.68e-06  3.07e-05  1.32e-05     3.2
   11    -927.9466115810163274    -3.53e-09  8.61e-07  2.34e-05  8.62e-06     3.0
                 **** Energy Check signals convergence ****

               *****************************************************
               *                     SUCCESS                       *
               *           SCF CONVERGED AFTER  11 CYCLES          *
               *****************************************************

Recomputing exchange energy using gridx3       ... done (    9.797 sec)
Old exchange energy                            :    -20.116487320 Eh
New exchange energy                            :    -20.116540278 Eh
Exchange energy change after final integration :     -0.000052958 Eh
Total energy after final integration           :   -927.946664546 Eh
             **** ENERGY FILE WAS UPDATED (HFE_347pcf2_anti.en.tmp) ****

----------------
TOTAL SCF ENERGY
----------------

Total Energy       :       -927.94666454551191 Eh          -25250.71246 eV

Components:
Nuclear Repulsion  :        840.79647529670603 Eh           22879.23525 eV
Electronic Energy  :      -1768.74308688469546 Eh          -48129.94627 eV
One Electron Energy:      -2960.26834345905991 Eh          -80552.99686 eV
Two Electron Energy:       1191.52525657436445 Eh           32423.05059 eV

Virial components:
Potential Energy   :      -1851.48907486740063 Eh          -50381.57908 eV
Kinetic Energy     :        923.54241032188861 Eh           25130.86661 eV
Virial Ratio       :          2.00476887057313

DFT components:
N(Alpha)           :       48.999996642152 electrons
N(Beta)            :       48.999996642152 electrons
N(Total)           :       97.999993284304 electrons
E(X)               :      -80.077831202311 Eh       
E(C)               :       -4.261484460777 Eh       
E(XC)              :      -84.339315663088 Eh       

---------------
SCF CONVERGENCE
---------------

  Last Energy change         ...    3.5275e-09  Tolerance :   1.0000e-08
  Last MAX-Density change    ...    2.3411e-05  Tolerance :   1.0000e-07
  Last RMS-Density change    ...    8.6129e-07  Tolerance :   5.0000e-09
  Last DIIS Error            ...    2.8367e-03  Tolerance :   5.0000e-07
  Last Orbital Gradient      ...    8.6218e-06  Tolerance :   1.0000e-05
  Last Orbital Rotation      ...    7.2601e-06  Tolerance :   1.0000e-05


----------------
ORBITAL ENERGIES
----------------

  NO   OCC          E(Eh)            E(eV) 
   0   2.0000     -24.738181      -673.1601 
   1   2.0000     -24.734779      -673.0675 
   2   2.0000     -24.732010      -672.9922 
   3   2.0000     -24.724204      -672.7798 
   4   2.0000     -24.723608      -672.7636 
   5   2.0000     -24.719073      -672.6402 
   6   2.0000     -24.715886      -672.5534 
   7   2.0000     -19.205996      -522.6217 
   8   2.0000     -10.440350      -284.0964 
   9   2.0000     -10.426212      -283.7116 
  10   2.0000     -10.368170      -282.1322 
  11   2.0000     -10.271489      -279.5014 
  12   2.0000      -1.309013       -35.6201 
  13   2.0000      -1.300012       -35.3751 
  14   2.0000      -1.266704       -34.4688 
  15   2.0000      -1.230655       -33.4878 
  16   2.0000      -1.224320       -33.3154 
  17   2.0000      -1.219263       -33.1778 
  18   2.0000      -1.208642       -32.8888 
  19   2.0000      -1.085738       -29.5444 
  20   2.0000      -0.819519       -22.3002 
  21   2.0000      -0.764317       -20.7981 
  22   2.0000      -0.677753       -18.4426 
  23   2.0000      -0.661805       -18.0086 
  24   2.0000      -0.609051       -16.5731 
  25   2.0000      -0.603560       -16.4237 
  26   2.0000      -0.598067       -16.2742 
  27   2.0000      -0.591154       -16.0861 
  28   2.0000      -0.577056       -15.7025 
  29   2.0000      -0.555762       -15.1231 
  30   2.0000      -0.553062       -15.0496 
  31   2.0000      -0.545925       -14.8554 
  32   2.0000      -0.500502       -13.6193 
  33   2.0000      -0.475240       -12.9319 
  34   2.0000      -0.464998       -12.6532 
  35   2.0000      -0.461798       -12.5662 
  36   2.0000      -0.458492       -12.4762 
  37   2.0000      -0.443320       -12.0633 
  38   2.0000      -0.434965       -11.8360 
  39   2.0000      -0.427516       -11.6333 
  40   2.0000      -0.425116       -11.5680 
  41   2.0000      -0.416074       -11.3219 
  42   2.0000      -0.415059       -11.2943 
  43   2.0000      -0.412238       -11.2176 
  44   2.0000      -0.404827       -11.0159 
  45   2.0000      -0.403883       -10.9902 
  46   2.0000      -0.373175       -10.1546 
  47   2.0000      -0.359992        -9.7959 
  48   2.0000      -0.328446        -8.9375 
  49   0.0000       0.054291         1.4773 
  50   0.0000       0.078460         2.1350 
  51   0.0000       0.095993         2.6121 
  52   0.0000       0.115304         3.1376 
  53   0.0000       0.120314         3.2739 
  54   0.0000       0.141004         3.8369 
  55   0.0000       0.185081         5.0363 
  56   0.0000       0.198210         5.3936 
  57   0.0000       0.204273         5.5586 
  58   0.0000       0.207014         5.6331 
  59   0.0000       0.227203         6.1825 
*Only the first 10 virtual orbitals were printed.

                    ********************************
                    * MULLIKEN POPULATION ANALYSIS *
                    ********************************

-----------------------
MULLIKEN ATOMIC CHARGES
-----------------------
   0 F :   -0.305066
   1 F :   -0.302367
   2 F :   -0.294702
   3 F :   -0.297139
   4 F :   -0.288716
   5 F :   -0.290218
   6 F :   -0.284748
   7 O :   -0.511107
   8 C :    0.842282
   9 C :   -0.158202
  10 C :    0.465291
  11 C :    0.906222
  12 H :    0.182361
  13 H :    0.185014
  14 H :    0.151094
Sum of atomic charges:   -0.0000000

--------------------------------
MULLIKEN REDUCED ORBITAL CHARGES
--------------------------------
  0 F s       :     3.978332  s :     3.978332
      pz      :     1.826433  p :     5.309604
      px      :     1.909842
      py      :     1.573329
      dz2     :     0.002306  d :     0.017131
      dxz     :     0.000844
      dyz     :     0.005571
      dx2y2   :     0.004862
      dxy     :     0.003548

  1 F s       :     3.980023  s :     3.980023
      pz      :     1.501126  p :     5.304993
      px      :     1.905419
      py      :     1.898448
      dz2     :     0.008246  d :     0.017352
      dxz     :     0.004194
      dyz     :     0.004089
      dx2y2   :     0.000420
      dxy     :     0.000403

  2 F s       :     3.968797  s :     3.968797
      pz      :     1.819966  p :     5.308585
      px      :     1.908500
      py      :     1.580119
      dz2     :     0.002818  d :     0.017320
      dxz     :     0.000809
      dyz     :     0.005527
      dx2y2   :     0.004873
      dxy     :     0.003293

  3 F s       :     3.969364  s :     3.969364
      pz      :     1.898953  p :     5.310416
      px      :     1.567921
      py      :     1.843542
      dz2     :     0.002485  d :     0.017359
      dxz     :     0.003725
      dyz     :     0.000978
      dx2y2   :     0.005029
      dxy     :     0.005142

  4 F s       :     3.969180  s :     3.969180
      pz      :     1.500680  p :     5.302471
      px      :     1.907179
      py      :     1.894612
      dz2     :     0.008087  d :     0.017065
      dxz     :     0.004147
      dyz     :     0.003953
      dx2y2   :     0.000410
      dxy     :     0.000467

  5 F s       :     3.971283  s :     3.971283
      pz      :     1.863584  p :     5.301893
      px      :     1.644687
      py      :     1.793623
      dz2     :     0.002292  d :     0.017042
      dxz     :     0.003412
      dyz     :     0.001860
      dx2y2   :     0.004142
      dxy     :     0.005336

  6 F s       :     3.968994  s :     3.968994
      pz      :     1.822165  p :     5.298608
      px      :     1.911829
      py      :     1.564614
      dz2     :     0.002321  d :     0.017146
      dxz     :     0.000875
      dyz     :     0.005496
      dx2y2   :     0.004810
      dxy     :     0.003643

  7 O s       :     3.888525  s :     3.888525
      pz      :     1.779697  p :     4.594552
      px      :     1.190723
      py      :     1.624132
      dz2     :     0.004032  d :     0.028030
      dxz     :     0.004765
      dyz     :     0.004377
      dx2y2   :     0.004998
      dxy     :     0.009858

  8 C s       :     2.842690  s :     2.842690
      pz      :     0.648782  p :     2.171970
      px      :     0.809650
      py      :     0.713538
      dz2     :     0.036223  d :     0.143058
      dxz     :     0.024098
      dyz     :     0.030206
      dx2y2   :     0.024432
      dxy     :     0.028099

  9 C s       :     3.219384  s :     3.219384
      pz      :     1.073128  p :     2.875568
      px      :     0.833165
      py      :     0.969275
      dz2     :     0.016005  d :     0.063250
      dxz     :     0.009039
      dyz     :     0.009331
      dx2y2   :     0.013668
      dxy     :     0.015205

 10 C s       :     3.040350  s :     3.040350
      pz      :     0.959520  p :     2.382424
      px      :     0.735751
      py      :     0.687152
      dz2     :     0.024741  d :     0.111935
      dxz     :     0.013683
      dyz     :     0.018485
      dx2y2   :     0.025917
      dxy     :     0.029110

 11 C s       :     2.794243  s :     2.794243
      pz      :     0.646550  p :     2.144796
      px      :     0.819252
      py      :     0.678994
      dz2     :     0.038897  d :     0.154739
      dxz     :     0.024375
      dyz     :     0.032458
      dx2y2   :     0.027792
      dxy     :     0.031217

 12 H s       :     0.817639  s :     0.817639

 13 H s       :     0.814986  s :     0.814986

 14 H s       :     0.848906  s :     0.848906



                     *******************************
                     * LOEWDIN POPULATION ANALYSIS *
                     *******************************

----------------------
LOEWDIN ATOMIC CHARGES
----------------------
   0 F :   -0.096624
   1 F :   -0.092133
   2 F :   -0.109762
   3 F :   -0.110128
   4 F :   -0.093448
   5 F :   -0.089249
   6 F :   -0.089753
   7 O :   -0.200306
   8 C :    0.219454
   9 C :   -0.135563
  10 C :    0.129763
  11 C :    0.250645
  12 H :    0.143021
  13 H :    0.144507
  14 H :    0.129575

-------------------------------
LOEWDIN REDUCED ORBITAL CHARGES
-------------------------------
  0 F s       :     3.740918  s :     3.740918
      pz      :     1.825680  p :     5.320798
      px      :     1.899247
      py      :     1.595871
      dz2     :     0.004564  d :     0.034908
      dxz     :     0.001584
      dyz     :     0.011070
      dx2y2   :     0.010796
      dxy     :     0.006895

  1 F s       :     3.740267  s :     3.740267
      pz      :     1.529648  p :     5.316707
      px      :     1.895074
      py      :     1.891984
      dz2     :     0.018040  d :     0.035159
      dxz     :     0.008095
      dyz     :     0.007557
      dx2y2   :     0.000660
      dxy     :     0.000808

  2 F s       :     3.743855  s :     3.743855
      pz      :     1.835405  p :     5.331032
      px      :     1.895981
      py      :     1.599645
      dz2     :     0.005772  d :     0.034875
      dxz     :     0.001464
      dyz     :     0.011992
      dx2y2   :     0.009754
      dxy     :     0.005894

  3 F s       :     3.743031  s :     3.743031
      pz      :     1.903436  p :     5.332243
      px      :     1.588486
      py      :     1.840321
      dz2     :     0.005131  d :     0.034853
      dxz     :     0.007617
      dyz     :     0.002052
      dx2y2   :     0.009893
      dxy     :     0.010160

  4 F s       :     3.741469  s :     3.741469
      pz      :     1.530539  p :     5.317809
      px      :     1.897475
      py      :     1.889795
      dz2     :     0.017886  d :     0.034170
      dxz     :     0.007622
      dyz     :     0.007305
      dx2y2   :     0.000560
      dxy     :     0.000797

  5 F s       :     3.739759  s :     3.739759
      pz      :     1.860957  p :     5.315506
      px      :     1.659800
      py      :     1.794750
      dz2     :     0.004593  d :     0.033984
      dxz     :     0.006370
      dyz     :     0.003627
      dx2y2   :     0.007909
      dxy     :     0.011484

  6 F s       :     3.740853  s :     3.740853
      pz      :     1.822462  p :     5.314612
      px      :     1.901614
      py      :     1.590536
      dz2     :     0.004487  d :     0.034288
      dxz     :     0.001468
      dyz     :     0.011262
      dx2y2   :     0.010500
      dxy     :     0.006571

  7 O s       :     3.494787  s :     3.494787
      pz      :     1.776486  p :     4.644264
      px      :     1.223644
      py      :     1.644134
      dz2     :     0.008200  d :     0.061255
      dxz     :     0.010973
      dyz     :     0.006179
      dx2y2   :     0.013964
      dxy     :     0.021940

  8 C s       :     2.841840  s :     2.841840
      pz      :     0.805970  p :     2.601713
      px      :     0.937159
      py      :     0.858584
      dz2     :     0.089768  d :     0.336993
      dxz     :     0.052073
      dyz     :     0.071784
      dx2y2   :     0.055579
      dxy     :     0.067789

  9 C s       :     2.943404  s :     2.943404
      pz      :     1.111456  p :     3.057331
      px      :     0.907446
      py      :     1.038429
      dz2     :     0.032376  d :     0.134828
      dxz     :     0.018994
      dyz     :     0.018327
      dx2y2   :     0.029745
      dxy     :     0.035385

 10 C s       :     2.903341  s :     2.903341
      pz      :     1.041223  p :     2.701595
      px      :     0.848627
      py      :     0.811745
      dz2     :     0.057588  d :     0.265301
      dxz     :     0.029856
      dyz     :     0.044882
      dx2y2   :     0.061052
      dxy     :     0.071923

 11 C s       :     2.833717  s :     2.833717
      pz      :     0.790814  p :     2.546487
      px      :     0.930634
      py      :     0.825040
      dz2     :     0.097486  d :     0.369151
      dxz     :     0.052727
      dyz     :     0.076440
      dx2y2   :     0.065385
      dxy     :     0.077113

 12 H s       :     0.856979  s :     0.856979

 13 H s       :     0.855493  s :     0.855493

 14 H s       :     0.870425  s :     0.870425



                      *****************************
                      * MAYER POPULATION ANALYSIS *
                      *****************************

  NA   - Mulliken gross atomic population
  ZA   - Total nuclear charge
  QA   - Mulliken gross atomic charge
  VA   - Mayer's total valence
  BVA  - Mayer's bonded valence
  FA   - Mayer's free valence

  ATOM       NA         ZA         QA         VA         BVA        FA
  0 F      9.3051     9.0000    -0.3051     1.0450     1.0450    -0.0000
  1 F      9.3024     9.0000    -0.3024     1.0506     1.0506    -0.0000
  2 F      9.2947     9.0000    -0.2947     1.0502     1.0502    -0.0000
  3 F      9.2971     9.0000    -0.2971     1.0493     1.0493    -0.0000
  4 F      9.2887     9.0000    -0.2887     1.0673     1.0673    -0.0000
  5 F      9.2902     9.0000    -0.2902     1.0696     1.0696     0.0000
  6 F      9.2847     9.0000    -0.2847     1.0727     1.0727    -0.0000
  7 O      8.5111     8.0000    -0.5111     1.9178     1.9178     0.0000
  8 C      5.1577     6.0000     0.8423     3.8495     3.8495    -0.0000
  9 C      6.1582     6.0000    -0.1582     3.7949     3.7949     0.0000
 10 C      5.5347     6.0000     0.4653     3.8293     3.8293     0.0000
 11 C      5.0938     6.0000     0.9062     3.9825     3.9825     0.0000
 12 H      0.8176     1.0000     0.1824     0.9295     0.9295    -0.0000
 13 H      0.8150     1.0000     0.1850     0.9288     0.9288    -0.0000
 14 H      0.8489     1.0000     0.1511     0.9263     0.9263     0.0000

  Mayer bond orders larger than 0.100000
B(  0-F ,  8-C ) :   0.9384 B(  1-F ,  8-C ) :   0.9425 B(  2-F , 10-C ) :   0.9795 
B(  3-F , 10-C ) :   0.9668 B(  4-F , 11-C ) :   0.9989 B(  5-F , 11-C ) :   0.9827 
B(  6-F , 11-C ) :   1.0047 B(  7-O ,  8-C ) :   0.9625 B(  7-O ,  9-C ) :   0.8842 
B(  8-C , 10-C ) :   0.9055 B(  9-C , 11-C ) :   0.9730 B(  9-C , 12-H ) :   0.9045 
B(  9-C , 13-H ) :   0.9038 B( 10-C , 14-H ) :   0.9068 

-------
TIMINGS
-------

Total SCF time: 0 days 0 hours 0 min 50 sec 

Total time                  ....      50.272 sec
Sum of individual times     ....      47.410 sec  ( 94.3%)

SCF preparation             ....       0.124 sec  (  0.2%)
Fock matrix formation       ....      47.104 sec  ( 93.7%)
  Startup                   ....       0.007 sec  (  0.0% of F)
  Split-RI-J                ....       4.463 sec  (  9.5% of F)
  Chain of spheres X        ....      38.586 sec  ( 81.9% of F)
  XC integration            ....       6.667 sec  ( 14.2% of F)
    XC Preparation          ....       0.000 sec  (  0.0% of XC)
    Basis function eval.    ....       2.436 sec  ( 36.5% of XC)
    Density eval.           ....       1.359 sec  ( 20.4% of XC)
    XC-Functional eval.     ....       0.455 sec  (  6.8% of XC)
    XC-Potential eval.      ....       1.786 sec  ( 26.8% of XC)
Diagonalization             ....       0.000 sec  (  0.0%)
Density matrix formation    ....       0.032 sec  (  0.1%)
Total Energy calculation    ....       0.011 sec  (  0.0%)
Population analysis         ....       0.007 sec  (  0.0%)
Orbital Transformation      ....       0.016 sec  (  0.0%)
Orbital Orthonormalization  ....       0.000 sec  (  0.0%)
DIIS solution               ....       0.064 sec  (  0.1%)
SOSCF solution              ....       0.052 sec  (  0.1%)
Finished LeanSCF after  50.3 sec

Maximum memory used throughout the entire LEANSCF-calculation: 21.0 MB

------------------------------------------------------------------------------
                         ORCA PROPERTY INTEGRAL CALCULATIONS
------------------------------------------------------------------------------

GBWName                                   ... HFE_347pcf2_anti.gbw
Number of atoms                           ...     15
Number of basis functions                 ...    174
Max core memory                           ...   4096 MB

Dipole integrals                          ... YES
Quadrupole integrals                      ...  NO
Linear momentum integrals                 ...  NO
Angular momentum integrals                ...  NO
Higher moments length integrals           ...  NO
Higher moments velocity integrals         ...  NO
Kinetic energy integrals                  ...  NO
GIAO right hand sides                     ...  NO
GIAO dipole derivative integrals          ...  NO
SOC integrals                             ...  NO
EPR diamagnetic integrals (GIAO)          ...  NO
EPR gauge integrals                       ...  NO
Field gradient integrals                  ...  NO (   0 nuclei)
Spin-dipole/Fermi contact integrals       ...  NO (   0 nuclei)
Contact density integrals                 ...  NO (   0 nuclei)
Nucleus-orbit integrals                   ...  NO (   0 nuclei)
Geometric perturbations                   ...  NO (  15 nuclei)

Choice of electric origin   ... Center of mass
Position of electric origin ... (  0.0003,  0.0097, -0.0142) 
Choice of magnetic origin   ... GIAO
Position of magnetic origin ... (  0.0000,  0.0000,  0.0000) 

Calculating integrals                     ... Electric Dipole (Length)     done (  0.0 sec)

Property integrals calculated in   0.0 sec

Maximum memory used throughout the entire PROPINT-calculation: 12.4 MB

-------------------------   --------------------
FINAL SINGLE POINT ENERGY      -927.946664545512
-------------------------   --------------------

------------------------------------------------------------------------------
                         ORCA SCF GRADIENT CALCULATION
------------------------------------------------------------------------------

Nuc. rep. gradient        (SHARK) ... done (  0.0 sec)
HCore & Overlap gradient  (SHARK) ... done (  0.2 sec)
Split-RIJ-J gradient      (SHARK) ... done (  1.7 sec)
COSX-gradient                     ... done ( 24.0 sec)
XC gradient                       ... done (  3.6 sec)

------------------
CARTESIAN GRADIENT
------------------

   1   F   :   -0.004970269    0.003275955    0.000308026
   2   F   :   -0.002896794    0.003044291   -0.000137400
   3   F   :    0.005866686   -0.001093952    0.000814794
   4   F   :    0.001149403    0.007679288   -0.000725136
   5   F   :    0.000673184    0.000365501    0.002736199
   6   F   :   -0.005854890    0.000884848    0.000965569
   7   F   :    0.000600490    0.003913156   -0.000861717
   8   O   :   -0.032060479    0.004461225    0.000756051
   9   C   :    0.044160862   -0.005244742    0.003875824
  10   C   :   -0.004832950    0.012336325    0.007295364
  11   C   :   -0.015453402   -0.019167491   -0.006545768
  12   C   :    0.004115479   -0.012361489   -0.007844020
  13   H   :    0.003696882   -0.000284584    0.000224555
  14   H   :    0.003098791   -0.000151556   -0.000083312
  15   H   :    0.002707005    0.002343225   -0.000779029

Difference to translation invariance:
           :    0.0000000000    0.0000000001   -0.0000000001

Difference to rotation invariance:
           :    0.0005774741    0.0000584019    0.0001365975

Norm of the Cartesian gradient     ...    0.0663158348
RMS gradient                       ...    0.0098857810
MAX gradient                       ...    0.0441608623

-------
TIMINGS
-------

Total SCF gradient time     ....       29.522 sec

Densities                   ....       0.001 sec  (  0.0%)
One electron gradient       ....       0.193 sec  (  0.7%)
RI-J Coulomb gradient       ....       1.703 sec  (  5.8%)
COSX gradient               ....      23.990 sec  ( 81.3%)
XC gradient                 ....       3.634 sec  ( 12.3%)

Maximum memory used throughout the entire SCFGRAD-calculation: 24.8 MB
------------------------------------------------------------------------------
                         ORCA GEOMETRY RELAXATION STEP
------------------------------------------------------------------------------

Reading the OPT-File                    .... done
Getting information on internals        .... done
Copying old internal coords+grads       .... done
Making the new internal coordinates     .... (2022 redundants) done
Validating the new internal coordinates .... (2022 redundants) done
Calculating the B-matrix                .... done
Calculating the G,G- and P matrices     .... done
Transforming gradient to internals      .... done
Projecting the internal gradient        .... done
Number of atoms                         ....  15
Number of internal coordinates          ....  57
Current Energy                          ....  -927.946664546 Eh
Current gradient norm                   ....     0.066315835 Eh/bohr
Maximum allowed component of the step   ....  0.300
Current trust radius                    ....  0.300
Evaluating the initial hessian          ....  (Almloef) done
Projecting the Hessian                  .... done
Forming the augmented Hessian           .... done
Diagonalizing the augmented Hessian     .... done
Last element of RFO vector              ....  0.992938955
Lowest eigenvalues of augmented Hessian:
 -0.005185861  0.013129122  0.013282647  0.019615904  0.019753161
Length of the computed step             ....  0.119470017
The final length of the internal step   ....  0.119470017
Converting the step to Cartesian space:
 Initial RMS(Int)=    0.0158241903
Transforming coordinates:
 Iter   0:  RMS(Cart)=    0.0512757001 RMS(Int)=    1.1767825408
done
Storing new coordinates                 .... done

                                .--------------------.
          ----------------------|Geometry convergence|-------------------------
          Item                value                   Tolerance       Converged
          ---------------------------------------------------------------------
          RMS gradient        0.0061832120            0.0001000000      NO
          MAX gradient        0.0316543626            0.0003000000      NO
          RMS step            0.0158241903            0.0020000000      NO
          MAX step            0.0628886933            0.0040000000      NO
          -------------------------------------------------------------------------
          ........................................................
          Max(Bonds)      0.0333      Max(Angles)    1.81
          Max(Dihed)        1.60      Max(Improp)    0.00
          ---------------------------------------------------------------------

The optimization has not yet converged - more geometry cycles are needed


    ---------------------------------------------------------------------------
                         Redundant Internal Coordinates
                            (Angstroem and degrees)

        Definition                    Value    dE/dq     Step     New-Value
    ----------------------------------------------------------------------------
     1. B(C   8,F   1)                1.3540 -0.000632  0.0006    1.3545   
     2. B(C   8,O   7)                1.4217  0.031654 -0.0333    1.3884   
     3. B(C   8,F   0)                1.3549 -0.002990  0.0027    1.3576   
     4. B(C   9,O   7)                1.4207 -0.004593  0.0048    1.4255   
     5. B(C  10,F   3)                1.3556 -0.001994  0.0018    1.3574   
     6. B(C  10,C   8)                1.5052 -0.012732  0.0163    1.5215   
     7. B(C  10,F   2)                1.3560 -0.001477  0.0013    1.3573   
     8. B(C  11,F   6)                1.3498  0.003868 -0.0034    1.3464   
     9. B(C  11,F   5)                1.3498  0.003788 -0.0033    1.3465   
    10. B(C  11,C   9)                1.5067 -0.003913  0.0050    1.5117   
    11. B(C  11,F   4)                1.3510  0.002665 -0.0023    1.3487   
    12. B(H  12,C   9)                1.0953  0.000391 -0.0006    1.0947   
    13. B(H  13,C   9)                1.0952  0.000386 -0.0006    1.0947   
    14. B(H  14,C  10)                1.0933 -0.000606  0.0009    1.0942   
    15. A(C   8,O   7,C   9)          112.56 -0.007628    1.09    113.64   
    16. A(F   1,C   8,C  10)          110.06 -0.002139    0.21    110.27   
    17. A(F   1,C   8,O   7)          109.61 -0.006823    1.27    110.88   
    18. A(O   7,C   8,C  10)          110.34  0.012278   -1.75    108.60   
    19. A(F   0,C   8,C  10)          109.68  0.001441   -0.52    109.16   
    20. A(F   0,C   8,F   1)          107.97  0.002921   -0.45    107.52   
    21. A(F   0,C   8,O   7)          109.14 -0.007979    1.27    110.42   
    22. A(H  12,C   9,H  13)          108.85 -0.000264    0.38    109.23   
    23. A(C  11,C   9,H  13)          109.52  0.000323   -0.31    109.21   
    24. A(O   7,C   9,H  13)          109.94 -0.004695    0.88    110.82   
    25. A(C  11,C   9,H  12)          109.60  0.001137   -0.48    109.12   
    26. A(O   7,C   9,H  12)          109.84 -0.005265    0.98    110.83   
    27. A(O   7,C   9,C  11)          109.08  0.008741   -1.46    107.62   
    28. A(F   3,C  10,H  14)          109.11 -0.003557    0.33    109.44   
    29. A(F   2,C  10,H  14)          108.81 -0.004774    0.53    109.34   
    30. A(F   2,C  10,F   3)          106.81 -0.009445    1.81    108.62   
    31. A(F   3,C  10,C   8)          109.51  0.009084   -1.16    108.36   
    32. A(C   8,C  10,H  14)          112.73  0.003020   -0.80    111.93   
    33. A(F   2,C  10,C   8)          109.69  0.004852   -0.55    109.14   
    34. A(F   4,C  11,C   9)          110.61 -0.004973    0.69    111.30   
    35. A(F   5,C  11,F   6)          108.10  0.000803   -0.06    108.04   
    36. A(F   4,C  11,F   6)          107.71 -0.002707    0.41    108.13   
    37. A(F   4,C  11,F   5)          107.74 -0.002539    0.26    107.99   
    38. A(F   6,C  11,C   9)          111.26 -0.001738    0.30    111.57   
    39. A(F   5,C  11,C   9)          111.27  0.010830   -1.56    109.70   
    40. D(F   1,C   8,O   7,C   9)     58.64 -0.001853    0.04     58.68   
    41. D(F   0,C   8,O   7,C   9)    -59.41  0.003284   -0.91    -60.32   
    42. D(C  10,C   8,O   7,C   9)    180.00 -0.001064    0.01    180.01   
    43. D(H  13,C   9,O   7,C   8)    -59.24  0.003264   -1.03    -60.26   
    44. D(H  12,C   9,O   7,C   8)     60.52 -0.003272    0.61     61.13   
    45. D(C  11,C   9,O   7,C   8)   -179.34  0.000315   -0.28   -179.62   
    46. D(F   2,C  10,C   8,F   0)    178.28  0.000023   -0.40    177.87   
    47. D(F   3,C  10,C   8,O   7)   -178.37  0.002135   -1.46   -179.83   
    48. D(F   3,C  10,C   8,F   1)    -57.28  0.000196   -0.87    -58.15   
    49. D(F   3,C  10,C   8,F   0)     61.36  0.003360   -1.60     59.76   
    50. D(F   2,C  10,C   8,O   7)    -61.46 -0.001202   -0.26    -61.72   
    51. D(F   2,C  10,C   8,F   1)     59.63 -0.003140    0.33     59.96   
    52. D(F   4,C  11,C   9,H  13)   -179.92  0.000553   -0.12   -180.04   
    53. D(F   4,C  11,C   9,H  12)     60.73 -0.000011   -0.11     60.62   
    54. D(F   4,C  11,C   9,O   7)    -59.56  0.000369   -0.13    -59.69   
    55. D(F   5,C  11,C   9,H  13)     60.37 -0.000055    0.12     60.49   
    56. D(F   5,C  11,C   9,H  12)    -58.98 -0.000618    0.13    -58.85   
    57. D(F   5,C  11,C   9,O   7)   -179.27 -0.000238    0.11   -179.16   
    ----------------------------------------------------------------------------

Geometry step timings:
Preparation and reading OPT file:      0.000 s ( 0.493 %)
Internal coordinates            :      0.000 s ( 2.111 %)
B/P matrices and projection     :      0.002 s (15.846 %)
Hessian update/contruction      :      0.003 s (35.120 %)
Making the step                 :      0.004 s (35.743 %)
Converting the step to Cartesian:      0.000 s ( 3.318 %)
Storing new data                :      0.000 s ( 0.714 %)
Checking convergence            :      0.000 s ( 0.533 %)
Final printing                  :      0.001 s ( 6.123 %)
Total time                      :      0.010 s

Time for energy+gradient        :     83.330 s
Time for complete geometry iter :     83.469 s

         *************************************************************
         *                GEOMETRY OPTIMIZATION CYCLE   2            *
         *************************************************************
---------------------------------
CARTESIAN COORDINATES (ANGSTROEM)
---------------------------------
  F      1.318258   -1.639909    0.549657
  F      1.413160   -0.625919   -1.386117
  F      2.237909    1.685962   -0.146903
  F      3.512523   -0.068683    0.250081
  F     -2.508415    0.301029    1.362968
  F     -3.445909   -0.605606   -0.384414
  F     -2.420884    1.308251   -0.570666
  O     -0.016472    0.140778    0.185777
  C      1.225243   -0.430017   -0.059051
  C     -1.108993   -0.639965   -0.292791
  C      2.300986    0.492003    0.495479
  C     -2.382366    0.106109    0.034423
  H     -1.131219   -1.619041    0.196364
  H     -1.041742   -0.779919   -1.376386
  H      2.185822    0.653227    1.571579

----------------------------
CARTESIAN COORDINATES (A.U.)
----------------------------
  NO LB      ZA    FRAG     MASS         X           Y           Z
   0 F     9.0000    0    18.998    2.491146   -3.098979    1.038702
   1 F     9.0000    0    18.998    2.670486   -1.182816   -2.619382
   2 F     9.0000    0    18.998    4.229035    3.186007   -0.277606
   3 F     9.0000    0    18.998    6.637707   -0.129793    0.472584
   4 F     9.0000    0    18.998   -4.740218    0.568862    2.575637
   5 F     9.0000    0    18.998   -6.511825   -1.144430   -0.726437
   6 F     9.0000    0    18.998   -4.574807    2.472236   -1.078403
   7 O     8.0000    0    15.999   -0.031128    0.266031    0.351068
   8 C     6.0000    0    12.011    2.315373   -0.812614   -0.111590
   9 C     6.0000    0    12.011   -2.095693   -1.209359   -0.553295
  10 C     6.0000    0    12.011    4.348233    0.929750    0.936320
  11 C     6.0000    0    12.011   -4.502020    0.200518    0.065050
  12 H     1.0000    0     1.008   -2.137694   -3.059544    0.371074
  13 H     1.0000    0     1.008   -1.968608   -1.473833   -2.600992
  14 H     1.0000    0     1.008    4.130605    1.234421    2.969853

--------------------------------
INTERNAL COORDINATES (ANGSTROEM)
--------------------------------
 F      0   0   0     0.000000000000     0.00000000     0.00000000
 F      1   0   0     2.187328295620     0.00000000     0.00000000
 F      2   1   0     2.749665406932    90.22535178     0.00000000
 F      3   2   1     2.204771829831    65.50706659    56.55275905
 F      1   2   3     4.367165811069    89.81680092    78.76835222
 F      5   1   2     2.180419001949    92.44725061    60.12296364
 F      6   5   1     2.179040535856    60.06874965   271.08828717
 O      1   2   3     2.254940609271    61.10493812    61.94335924
 C      2   1   3     1.354546235845    36.29159317   332.43300857
 C      8   1   2     1.425548733660    94.31933322    91.73514253
 C      3   2   1     1.357266662843    59.17741637    16.67815056
 C      7   6   5     1.346388236456    35.98592565    37.32358771
 H     10   8   1     1.094694072295   110.81711856    31.68568667
 H     10   8   1     1.094662591966   110.80889409   270.26694640
 H     11   3   2     1.094187597948   109.32692088   209.52611547

---------------------------
INTERNAL COORDINATES (A.U.)
---------------------------
 F      0   0   0     0.000000000000     0.00000000     0.00000000
 F      1   0   0     4.133451443698     0.00000000     0.00000000
 F      2   1   0     5.196114579019    90.22535178     0.00000000
 F      3   2   1     4.166414946166    65.50706659    56.55275905
 F      1   2   3     8.252747364345    89.81680092    78.76835222
 F      5   1   2     4.120394770881    92.44725061    60.12296364
 F      6   5   1     4.117789847480    60.06874965   271.08828717
 O      1   2   3     4.261220199779    61.10493812    61.94335924
 C      2   1   3     2.559721421480    36.29159317   332.43300857
 C      8   1   2     2.693896697175    94.31933322    91.73514253
 C      3   2   1     2.564862283475    59.17741637    16.67815056
 C      7   6   5     2.544305036835    35.98592565    37.32358771
 H     10   8   1     2.068671997064   110.81711856    31.68568667
 H     10   8   1     2.068612507865   110.80889409   270.26694640
 H     11   3   2     2.067714899255   109.32692088   209.52611547

------------------------------------------------------------------------------
                   ___                                                        
                  /   \      - P O W E R E D   B Y -                         
                 /     \                                                     
                 |  |  |   _    _      __       _____    __    __             
                 |  |  |  | |  | |    /  \     |  _  \  |  |  /  |          
                  \  \/   | |  | |   /    \    | | | |  |  | /  /          
                 / \  \   | |__| |  /  /\  \   | |_| |  |  |/  /          
                |  |  |   |  __  | /  /__\  \  |    /   |      \           
                |  |  |   | |  | | |   __   |  |    \   |  |\   \          
                \     /   | |  | | |  |  |  |  | |\  \  |  | \   \       
                 \___/    |_|  |_| |__|  |__|  |_| \__\ |__|  \__/        
                                                                              
                      - O R C A' S   B I G   F R I E N D -                    
                                      &                                       
                       - I N T E G R A L  F E E D E R -                       
                                                                              
 v1 FN, 2020, v2 2021, v3 2022-2024                                           
[...]
     34      -0.366225   0.129863   0.005316   0.008621   0.017769   0.005355
     35      -0.210158  -0.210906   0.002448   0.020703   0.020933   0.003369
     36      -0.642868   0.621909   0.004501  -0.511710  -0.561371  -0.026408
     37       0.092055   0.023074  -0.006252  -0.058811  -0.074880  -0.184091
     38       0.157879  -0.023313  -0.012299  -0.017149  -0.006585  -0.677150
     39      -0.456482  -0.732712   0.003903  -0.423981  -0.536624   0.016765
     40       0.042783  -0.009720  -0.009884  -0.043886  -0.046225  -0.706293
     41       0.059012   0.030076  -0.002106  -0.006894  -0.012147   0.006793
     42      -0.065198   0.043853   0.479968   0.588680  -0.467573  -0.005065
     43      -0.124495   0.022555  -0.768901   0.354400  -0.274831   0.005764
     44       0.019621  -0.005219   0.395568  -0.042417   0.039084  -0.002866
                 42         43         44    
      0      -0.000091   0.000157  -0.000216
      1      -0.000375   0.000350  -0.000228
      2       0.000031  -0.000269   0.000032
      3      -0.000012   0.000020   0.000043
      4      -0.000262  -0.000298  -0.000006
      5      -0.000359  -0.000551   0.000109
      6       0.000033   0.000238   0.000004
      7       0.000030  -0.000869  -0.000011
      8      -0.000011  -0.000106   0.000026
      9       0.000123  -0.000520   0.000012
     10      -0.000009   0.000285  -0.000007
     11       0.000016  -0.000712   0.000013
     12       0.000059  -0.000000  -0.000132
     13      -0.000099  -0.000008  -0.000092
     14      -0.000264  -0.000041   0.000574
     15      -0.000454   0.000004   0.000016
     16      -0.000206  -0.000012  -0.000161
     17      -0.000158  -0.000014   0.000212
     18       0.000055   0.000004   0.000217
     19      -0.000207  -0.000019  -0.000580
     20      -0.000069  -0.000011   0.000198
     21       0.002247   0.000388  -0.000054
     22       0.000328   0.000040  -0.000520
     23      -0.000016  -0.000049   0.000338
     24      -0.001288  -0.001835   0.000246
     25       0.001694  -0.000848   0.000476
     26       0.000739   0.000972  -0.000115
     27      -0.004406   0.000162  -0.005075
     28       0.049198   0.000790   0.061439
     29       0.044551  -0.000215  -0.074441
     30      -0.000041  -0.014143   0.000102
     31      -0.000389   0.031421  -0.000196
     32      -0.000692   0.078302  -0.000694
     33       0.001831  -0.000003  -0.000133
     34      -0.000127   0.000100   0.001645
     35       0.000125   0.000125  -0.002188
     36       0.038357   0.000402   0.049594
     37      -0.628172  -0.010453  -0.706041
     38       0.217164   0.003445   0.227462
     39      -0.020502  -0.000494   0.011577
     40       0.041103  -0.000022  -0.022832
     41      -0.741725  -0.001359   0.661246
     42      -0.001597   0.184253  -0.001374
     43       0.002841  -0.354296   0.002552
     44       0.007271  -0.912730   0.006712


-----------
IR SPECTRUM
-----------

 Mode   freq       eps      Int      T**2         TX        TY        TZ
       cm**-1   L/(mol*cm) km/mol    a.u.
----------------------------------------------------------------------------
  6:     12.07   0.000308    1.56  0.007969  (-0.014953  0.063558 -0.060875)
  7:     39.64   0.000037    0.19  0.000292  ( 0.016315  0.001848  0.004721)
  8:     58.00   0.000048    0.24  0.000258  ( 0.011587 -0.009657 -0.005561)
  9:     81.17   0.000365    1.85  0.001405  ( 0.027052  0.025776  0.002927)
 10:    135.44   0.000519    2.62  0.001196  ( 0.001798  0.016898 -0.030117)
 11:    191.87   0.000103    0.52  0.000168  (-0.001323 -0.000089 -0.012885)
 12:    226.04   0.001009    5.10  0.001393  (-0.024663  0.000991 -0.027990)
 13:    243.24   0.000192    0.97  0.000246  (-0.009625  0.003626  0.011841)
 14:    308.05   0.000361    1.83  0.000366  (-0.013053  0.013974  0.000450)
 15:    355.62   0.000368    1.86  0.000323  (-0.004507  0.008660 -0.015097)
 16:    391.67   0.000477    2.41  0.000380  ( 0.015115 -0.010168  0.006954)
 17:    434.37   0.000643    3.25  0.000462  (-0.011763 -0.016622 -0.006860)
 18:    514.86   0.000661    3.34  0.000401  (-0.005776  0.008519  0.017169)
 19:    527.20   0.000593    3.00  0.000351  (-0.001110  0.006477 -0.017550)
 20:    540.56   0.001302    6.58  0.000752  ( 0.020572 -0.002470 -0.017961)
 21:    581.26   0.002305   11.65  0.001238  ( 0.034222  0.007931  0.001888)
 22:    590.56   0.002158   10.91  0.001141  ( 0.026089 -0.019851 -0.008116)
 23:    648.56   0.004249   21.47  0.002044  ( 0.044075 -0.007015 -0.007251)
 24:    774.58   0.010003   50.55  0.004030  (-0.034055 -0.032593 -0.042521)
 25:    856.66   0.009050   45.74  0.003297  ( 0.004011 -0.037596 -0.043211)
 26:    882.53   0.000083    0.42  0.000029  ( 0.002493  0.000628 -0.004755)
 27:    990.93   0.007037   35.56  0.002216  ( 0.007408  0.028611 -0.036643)
 28:   1061.97   0.005342   27.00  0.001570  (-0.019687 -0.017215 -0.029762)
 29:   1145.31   0.016628   84.03  0.004531  ( 0.022880  0.033799 -0.053523)
 30:   1157.37   0.035080  177.28  0.009459  (-0.070888 -0.054060  0.038874)
 31:   1170.19   0.023247  117.48  0.006199  (-0.010873  0.061520 -0.047922)
 32:   1201.69   0.081353  411.13  0.021126  (-0.113104  0.070772 -0.057665)
 33:   1216.66   0.036593  184.93  0.009386  (-0.056112 -0.074164 -0.027146)
 34:   1240.16   0.082764  418.26  0.020826  ( 0.132189 -0.033185 -0.047446)
 35:   1312.20   0.024788  125.27  0.005895  (-0.029877 -0.035960 -0.060904)
 36:   1321.98   0.011872   60.00  0.002803  (-0.004050 -0.043816 -0.029433)
 37:   1339.77   0.025515  128.94  0.005943  (-0.017990  0.044353 -0.060433)
 38:   1409.34   0.004067   20.55  0.000900  (-0.011681  0.025382 -0.010944)
 39:   1446.25   0.002470   12.48  0.000533  (-0.021151  0.002488  0.008905)
 40:   1472.06   0.005037   25.45  0.001068  (-0.030764  0.010863  0.001817)
 41:   1525.00   0.000996    5.03  0.000204  ( 0.011194 -0.006390 -0.006140)
 42:   3095.24   0.002674   13.51  0.000270  ( 0.012661  0.006402  0.008264)
 43:   3120.21   0.005642   28.51  0.000564  (-0.007212  0.006109  0.021793)
 44:   3153.65   0.001310    6.62  0.000130  ( 0.000150  0.006001 -0.009677)

* The epsilon (eps) is given for a Dirac delta lineshape.
** The dipole moment derivative (T) already includes vibrational overlap.

The first frequency considered to be a vibration is 6
The total number of vibrations considered is 39


--------------------------
THERMOCHEMISTRY AT 298.15K
--------------------------

Temperature         ...   298.15 K
Pressure            ...     1.00 atm
Total Mass          ...   200.05 AMU
Quasi RRHO          ...     True
Cut-Off Frequency   ...     1.00 cm^-1

Throughout the following assumptions are being made:
  (1) The electronic state is orbitally nondegenerate
  (2) There are no thermally accessible electronically excited states
  (3) Hindered rotations indicated by low frequency modes are not
      treated as such but are treated as vibrations and this may
      cause some error
  (4) All equations used are the standard statistical mechanics
      equations for an ideal gas
  (5) All vibrations are strictly harmonic

freq.      12.07  E(vib)   ...       0.58 
freq.      39.64  E(vib)   ...       0.54 
freq.      58.00  E(vib)   ...       0.51 
freq.      81.17  E(vib)   ...       0.48 
freq.     135.44  E(vib)   ...       0.42 
freq.     191.87  E(vib)   ...       0.36 
freq.     226.04  E(vib)   ...       0.33 
freq.     243.24  E(vib)   ...       0.31 
freq.     308.05  E(vib)   ...       0.26 
freq.     355.62  E(vib)   ...       0.22 
freq.     391.67  E(vib)   ...       0.20 
freq.     434.37  E(vib)   ...       0.17 
freq.     514.86  E(vib)   ...       0.13 
freq.     527.20  E(vib)   ...       0.13 
freq.     540.56  E(vib)   ...       0.12 
freq.     581.26  E(vib)   ...       0.11 
freq.     590.56  E(vib)   ...       0.10 
freq.     648.56  E(vib)   ...       0.08 
freq.     774.58  E(vib)   ...       0.05 
freq.     856.66  E(vib)   ...       0.04 
freq.     882.53  E(vib)   ...       0.04 
freq.     990.93  E(vib)   ...       0.02 
freq.    1061.97  E(vib)   ...       0.02 
freq.    1145.31  E(vib)   ...       0.01 
freq.    1157.37  E(vib)   ...       0.01 
freq.    1170.19  E(vib)   ...       0.01 
freq.    1201.69  E(vib)   ...       0.01 
freq.    1216.66  E(vib)   ...       0.01 
freq.    1240.16  E(vib)   ...       0.01 
freq.    1312.20  E(vib)   ...       0.01 
freq.    1321.98  E(vib)   ...       0.01 
freq.    1339.77  E(vib)   ...       0.01 
freq.    1409.34  E(vib)   ...       0.00 
freq.    1446.25  E(vib)   ...       0.00 
freq.    1472.06  E(vib)   ...       0.00 
freq.    1525.00  E(vib)   ...       0.00 
freq.    3095.24  E(vib)   ...       0.00 
freq.    3120.21  E(vib)   ...       0.00 
freq.    3153.65  E(vib)   ...       0.00 

------------
INNER ENERGY
------------

The inner energy is: U= E(el) + E(ZPE) + E(vib) + E(rot) + E(trans)
    E(el)   - is the total energy from the electronic structure calculation
              = E(kin-el) + E(nuc-el) + E(el-el) + E(nuc-nuc)
    E(ZPE)  - the the zero temperature vibrational energy from the frequency calculation
    E(vib)  - the the finite temperature correction to E(ZPE) due to population
              of excited vibrational states
    E(rot)  - is the rotational thermal energy
    E(trans)- is the translational thermal energy

Summary of contributions to the inner energy U:
Electronic energy                ...   -927.95134620 Eh
Zero point energy                ...      0.08377715 Eh      52.57 kcal/mol
Thermal vibrational correction   ...      0.00850255 Eh       5.34 kcal/mol
Thermal rotational correction    ...      0.00141627 Eh       0.89 kcal/mol
Thermal translational correction ...      0.00141627 Eh       0.89 kcal/mol
-----------------------------------------------------------------------
Total thermal energy                   -927.85623396 Eh


Summary of corrections to the electronic energy:
(perhaps to be used in another calculation)
Total thermal correction                  0.01133509 Eh       7.11 kcal/mol
Non-thermal (ZPE) correction              0.08377715 Eh      52.57 kcal/mol
-----------------------------------------------------------------------
Total correction                          0.09511224 Eh      59.68 kcal/mol


--------
ENTHALPY
--------

The enthalpy is H = U + kB*T
                kB is Boltzmann's constant
Total thermal energy              ...   -927.85623396 Eh 
Thermal Enthalpy correction       ...      0.00094421 Eh       0.59 kcal/mol
-----------------------------------------------------------------------
Total Enthalpy                    ...   -927.85528975 Eh


Note: Only C1 symmetry has been detected, increase convergence thresholds 
      if your molecule has a higher symmetry. Symmetry factor of 1.0 is   
      used for the rotational entropy correction. 
 

Note: Rotational entropy computed according to Herzberg 
Infrared and Raman Spectra, Chapter V,1, Van Nostrand Reinhold, 1945 
Point Group:  C1, Symmetry Number:   1  
Rotational constants in cm-1:     0.063523     0.014955     0.014173 

Vibrational entropy computed according to the QRRHO of S. Grimme
Chem.Eur.J. 2012 18 9955 using a reference frequency of 100.0 cm-1


-------
ENTROPY
-------

The entropy contributions are T*S = T*(S(el)+S(vib)+S(rot)+S(trans))
     S(el)   - electronic entropy
     S(vib)  - vibrational entropy
     S(rot)  - rotational entropy
     S(trans)- translational entropy
The entropies will be listed as multiplied by the temperature to get
units of energy

Electronic entropy                ...      0.00000000 Eh      0.00 kcal/mol
Vibrational entropy               ...      0.01561344 Eh      9.80 kcal/mol
Rotational entropy                ...      0.01480554 Eh      9.29 kcal/mol
Translational entropy             ...      0.01985330 Eh     12.46 kcal/mol
-----------------------------------------------------------------------
Final entropy term                ...      0.05027229 Eh     31.55 kcal/mol

In case the symmetry of your molecule has not been determined correctly
or in case you have a reason to use a different symmetry number we print 
out the resulting rotational entropy values for sn=1,12:

 non-linear molecules -----------------------------------
|  sn= 1 | S(rot)=       0.01480554 Eh      9.29 kcal/mol|
|  sn= 2 | S(rot)=       0.01415109 Eh      8.88 kcal/mol|
|  sn= 3 | S(rot)=       0.01376825 Eh      8.64 kcal/mol|
|  sn= 4 | S(rot)=       0.01349663 Eh      8.47 kcal/mol|
|  sn= 5 | S(rot)=       0.01328594 Eh      8.34 kcal/mol|
|  sn= 6 | S(rot)=       0.01311380 Eh      8.23 kcal/mol|
|  sn= 7 | S(rot)=       0.01296825 Eh      8.14 kcal/mol|
|  sn= 8 | S(rot)=       0.01284217 Eh      8.06 kcal/mol|
|  sn= 9 | S(rot)=       0.01273097 Eh      7.99 kcal/mol|
|  sn=10 | S(rot)=       0.01263149 Eh      7.93 kcal/mol|
|  sn=11 | S(rot)=       0.01254150 Eh      7.87 kcal/mol|
|  sn=12 | S(rot)=       0.01245934 Eh      7.82 kcal/mol|
 linear molecules ---------------------------------------
|  Dinfh | S(rot)=       0.00934464 Eh      5.86 kcal/mol|
|  Cinfv | S(rot)=       0.00999910 Eh      6.27 kcal/mol|
 --------------------------------------------------------


-------------------
GIBBS FREE ENERGY
-------------------

The Gibbs free energy is G = H - T*S

Total enthalpy                    ...   -927.85528975 Eh 
Total entropy correction          ...     -0.05027229 Eh    -31.55 kcal/mol
-----------------------------------------------------------------------
Final Gibbs free energy         ...   -927.90556203 Eh

For completeness - the Gibbs free energy minus the electronic energy
G-E(el)                           ...      0.04578416 Eh     28.73 kcal/mol


Maximum memory used throughout the entire PROP-calculation: 54.8 MB

--------------------------------
SUGGESTED CITATIONS FOR THIS RUN
--------------------------------

Below you find a list of papers that are relevant to this ORCA run
We neither can nor want to force you to cite these papers, but we appreciate if you do
You receive ORCA, which is the product of decades of hard work by many enthusiastic individuals, for free
The only thing we kindly ask in return is that you cite our papers,
We deeply appreciate it, if you show your appreciation for ORCA by not just citing the generic ORCA reference.

Please note that relegating all ORCA citations to the supporting information does *not* help us.
SI sections are not indexed - citations you put there will not count into any citation statistics
But we need these citations in order to attract the funding resources that allow us to do what we are doing

Therefore, if you are a happy ORCA user, please consider citing a few of the papers listed below in the main body of your paper

In addition to the list printed below, the program has created the file HFE_347pcf2_anti.bibtex that contains the list in bibtex format
You can import this file easily into all common literature databanks and citation aid programs

It goes without saying that in many instances, there are alternative algorithms to achieve similar
results as the ones you have gotten from ORCA. It is, of course, also the case that in some instances
ORCA just re-implements algorithms worked out by others. We are fully aware of that and we are also
fully appreciative of our colleagues work. Hence this citation list should not be read as indicating
that the listed papers, which are focused on our own work, are the only ones worth citing. It simply
meant to make it easier for users to cite ORCA specific papers. It is not a substitute for doing your
own literature research and citing the relevant literature in a scientifically appropriate manner.

List of essential papers. We consider these as the minimum necessary citations

  1. Neese, F.
     Software update: the ORCA program system, version 6.0
     WIRES Comput. Molec. Sci. 2025 15(1), e70019
     doi.org/10.1002/wcms.70019

List of papers to cite with high priority. The work reported in these papers was absolutely
necessary for this run to complete.
Our perspective: the developers of density functionals and basis sets usually get cited in chemistry papers
Good! But without the algorithms to do something with them, the functionals or basis sets would not do anything.
Hence, in our opinion, the algorithm design and method developments papers are equally worthy of getting cited

  1. Neese, F.
     An improvement of the resolution of the identity approximation for the formation of the Coulomb matrix
     J. Comp. Chem. 2003 24(14), 1740-1747
     doi.org/10.1002/jcc.10318
  2. Neese, F.; Wennmohs, F.; Hansen, A.; Becker, U.
     Efficient, approximate and parallel Hartree-Fock and hybrid DFT calculations. A 'chain-of-spheres' algorithm for the Hartree-Fock exchange
     Chem. Phys. 2009 356(1-3), 98-109
     doi.org/10.1016/j.chemphys.2008.10.036
  3. Bykov, D.; Petrenko, T.; Izsak, R.; Kossmann, S.; Becker, U.; Valeev, E.; Neese, F.
     Efficient implementation of the analytic second derivatives of Hartree-Fock and hybrid DFT energies: a detailed analysis of different approximations
     Molec. Phys. 2015 113 , 1961-1977
     doi.org/10.1080/00268976.2015.1025114
  4. Helmich-Paris, B.; de Souza, B.; Neese, F.; Izsák, R.
     An improved chain of spheres for exchange algorithm
     J. Chem. Phys. 2021 155(10), 104109
     doi.org/10.1063/5.0058766
  5. Neese, F.
     The SHARK Integral Generation and Digestion System
     J. Comp. Chem. 2022 44(3), 381
     doi.org/10.1002/jcc.26942

List of suggested additional citations. These are papers that are important in the 'surrounding' of 
of this run, or papers that preceded the highly important papers. If you like your results we are grateful for a citation.

  1. Izsak, R.; Neese, F.
     An overlap fitted chain of spheres exchange method
     J. Chem. Phys. 2011 135 , 144105
     doi.org/10.1063/1.3646921
  2. Izsak, R.; Hansen, A.; Neese, F.
     The resolution of identity and chain of spheres approximations for the LPNO-CCSD singles Fock term
     Molec. Phys. 2012 110 , 2413-2417
     doi.org/10.1080/00268976.2012.687466
  3. Neese, F.
     The ORCA program system
     WIRES Comput. Molec. Sci. 2012 2(1), 73-78
     doi.org/10.1002/wcms.81
  4. Izsak, R.; Neese, F.; Klopper, W.
     Robust fitting techniques in the chain of spheres approximation to the Fock exchange: The role of the complementary space
     J. Chem. Phys. 2013 139 , 
     doi.org/10.1063/1.4819264
  5. Neese, F.
     Software update: the ORCA program system, version 4.0
     WIRES Comput. Molec. Sci. 2018 8(1), 1-6
     doi.org/10.1002/wcms.1327
  6. Neese, F.; Wennmohs, F.; Becker, U.; Riplinger, C.
     The ORCA quantum chemistry program package
     J. Chem. Phys. 2020 152(22), 224108
     doi.org/10.1063/5.0004608
  7. Neese, F.
     Software update: The ORCA program system—Version 5.0
     WIRES Comput. Molec. Sci. 2022 12(1), e1606
     doi.org/10.1002/wcms.1606

List of optional additional citations

  1. Neese, F.
     Approximate second-order SCF convergence for spin unrestricted wavefunctions
     Chem. Phys. Lett. 2000 325(1-3), 93-98
     doi.org/10.1016/s0009-2614(00)00662-x

Timings for individual modules:

Sum of individual times          ...     1748.786 sec (=  29.146 min)
Startup calculation              ...       28.482 sec (=   0.475 min)   1.6 %
SCF iterations                   ...      555.302 sec (=   9.255 min)  31.8 %
Property integrals               ...      111.482 sec (=   1.858 min)   6.4 %
SCF Response                     ...       74.808 sec (=   1.247 min)   4.3 %
Property calculations            ...      590.329 sec (=   9.839 min)  33.8 %
SCF Gradient evaluation          ...      388.288 sec (=   6.471 min)  22.2 %
Geometry relaxation              ...        0.094 sec (=   0.002 min)   0.0 %
                             ****ORCA TERMINATED NORMALLY****
TOTAL RUN TIME: 0 days 0 hours 29 minutes 8 seconds 646 msec
