
                                 *****************
                                 * O   R   C   A *
                                 *****************

                                            #,                                       
                                            ###                                      
                                            ####                                     
                                            #####                                    
                                            ######                                   
                                           ########,                                 
                                     ,,################,,,,,                         
                               ,,#################################,,                 
                          ,,##########################################,,             
                       ,#########################################, ''#####,          
                    ,#############################################,,   '####,        
                  ,##################################################,,,,####,       
                ,###########''''           ''''###############################       
              ,#####''   ,,,,##########,,,,          '''####'''          '####       
            ,##' ,,,,###########################,,,                        '##       
           ' ,,###''''                  '''############,,,                           
         ,,##''                                '''############,,,,        ,,,,,,###''
      ,#''                                            '''#######################'''  
     '                                                          ''''####''''         
             ,#######,   #######,   ,#######,      ##                                
            ,#'     '#,  ##    ##  ,#'     '#,    #''#        ,####,    ,#,          
            ##       ##  ##   ,#'  ##            #'  '#       #'       ,# #          
            ##       ##  #######   ##           ,######,      #####,      #          
            '#,     ,#'  ##    ##  '#,     ,#' ,#      #,     #,   #      #          
             '#######'   ##     ##  '#######'  #'      '#     '####' #    #          



                #########################################################
                #                        -***-                          #
                #          Department of theory and spectroscopy        #
                #                                                       #
                #                      Frank Neese                      #
                #                                                       #
                #     Directorship, Architecture, Infrastructure        #
                #                    SHARK, DRIVERS                     #
                #        Core code/Algorithms in most modules           #
                #                                                       #
                #        Max Planck Institute fuer Kohlenforschung      #
                #                Kaiser Wilhelm Platz 1                 #
                #                 D-45470 Muelheim/Ruhr                 #
                #                      Germany                          #
                #                                                       #
                #                  All rights reserved                  #
                #                        -***-                          #
                #########################################################


                         Program Version 6.1.0  -  RELEASE   -
                                (GIT: $679e74b$)
                          ($2025-06-10 18:02:51 +0200$)


 With contributions from (in alphabetic order):
[Max-Planck-Institut fuer Kohlenforschung]                               
  Daniel Aravena         : Magnetic Suceptibility                        
  Michael Atanasov       : Ab Initio Ligand Field Theory (pilot matlab implementation)
  Alexander A. Auer      : GIAO ZORA, VPT2 properties, NMR spectrum      
  Ute Becker             : All parallelization in ORCA, NUMFREQ, NUMCALC 
  Giovanni Bistoni       : ED, misc. LED, open-shell LED, HFLD           
  Dmytro Bykov           : pre 5.0 version of the SCF Hessian            
  Marcos Casanova-Páez   : Triplet and SCS-CIS(D). UHF-(DLPNO)-IP/EA/STEOM-CCSD. UHF-CVS-IP/STEOM-CCSD   
  Vijay G. Chilkuri      : MRCI spin determinant printing, contributions to CSF-ICE 
  Pauline Colinet        : FMM embedding                                 
  Dipayan Datta          : RHF DLPNO-CCSD density                        
  Achintya Kumar Dutta   : EOM-CC, STEOM-CC                              
  Nicolas Foglia         : Exact transition moments, OPA infrastructure, MCD improvements    
  Dmitry Ganyushin       : Spin-Orbit,Spin-Spin,Magnetic field MRCI      
  Miquel Garcia-Rates    : C-PCM and meta-GGA Hessian, CCSD/C-PCM, Gaussian charge scheme 
  Tiago L. C. Gouveia    : GS-ROHF, GS-ROCIS                             
  Yang Guo               : DLPNO-NEVPT2, F12-NEVPT2, CIM, IAO-localization        
  Andreas Hansen         : Spin unrestricted coupled pair/coupled cluster methods 
  Ingolf Harden          : AUTO-CI MPn and infrastructure                
  Benjamin Helmich-Paris : MC-RPA, TRAH-(SCF,CASSCF), AVAS, COSX integrals, SCF dyn. polar., MC-PDFT, srDFT 
  Lee Huntington         : MR-EOM, pCC                                   
  Robert Izsak           : Overlap fitted RIJCOSX, COSX-SCS-MP3, EOM     
  Riya Kayal             : Wick's Theorem for AUTO-CI, AUTO-CI UHF-CCSDT 
  Emily Kempfer          : AUTO-CI RHF CISDT and CCSDT, approximate NEVPT4
  Christian Kollmar      : KDIIS, OOCD, Brueckner-CCSD(T), CCSD density, CASPT2, CASPT2-K, improved NEVPT2 
  Axel Koslowski         : Symmetry handling                             
  Simone Kossmann        : meta-GGA functionals, TD-DFT gradient, OOMP2, (MP2 Hessian; deprecated post 5.0) 
  Lucas Lang             : DCDCAS, Hyperfine gauge corrections, ICE-SOC+SSC
  Marvin Lechner         : AUTO-CI (C++ implementation), FIC-MRCC        
  Spencer Leger          : CASSCF response                               
  Dagmar Lenk            : GEPOL surface, SMD, ORCA-2-JSON               
  Dimitrios Liakos       : Extrapolation schemes; Compound Job, Property file
  Dimitrios Manganas     : Further ROCIS development; embedding schemes. LFT, Crystal Embedding 
  Dimitrios Pantazis     : SARC Basis sets                               
  Anastasios Papadopoulos: AUTO-CI, single reference methods and gradients 
  Taras Petrenko         : pre 6.0 DFT Hessian and TD-DFT gradient,  ECA, NRVS 
  Petra Pikulova         : Analytic Raman intensities                    
  Peter Pinski           : DLPNO-MP2, DLPNO-MP2 Gradient                 
  Shashank Vittal Rao    : ES-AILFT, MagRelax                            
  Christoph Reimann      : Effective Core Potentials                     
  Marius Retegan         : Local ZFS, SOC                                
  Christoph Riplinger    : Optimizer, TS searches, QM/MM, DLPNO-CCSD(T), (RO)-DLPNO pert. Triples 
  Michael Roemelt        : Original ROCIS implementation, recursive CI coupling coefficients
  Masaaki Saitow         : Open-shell DLPNO-CCSD energy and density      
  Barbara Sandhoefer     : DKH picture change effects                    
  Yorick L. A. Schmerwitz: GMF and freeze-and-release deltaSCF, NEB S-IDPP initial path                    
  Kantharuban Sivalingam : CASSCF convergence/infrastructure, NEVPT2, NEVPT3, NEVPT4(SD), FIC-MRCI and CEPA variants
  Bernardo de Souza      : ESD, SOC TD-DFT                               
  Georgi L. Stoychev     : AutoAux, RI-MP2 NMR, DLPNO-MP2 response, X2C  
  Van Anh Tran           : RI-MP2 g-tensors                              
  Willem Van den Heuvel  : Paramagnetic NMR                              
  Zikuan Wang            : NOTCH, Electric field optimization            
  Frank Wennmohs         : Technical directorship and infrastructure     
  Hang Xu                : AUTO-CI-Response properties                   
                                                                         
[FACCTs GmbH]                                                            
  Markus Bursch, Nicolas Foglia, Miquel Garcia-Rates, Ingolf Harden, Hagen Neugebauer, Anastasios Papadopoulos, 
  Christoph Riplinger, Bernardo de Souza, Georgi L. Stoychev                                                    
                                                                 
  APM, various basis sets, CI-OPT, improved COSX, DLPNO-Multilevel,           
  DOCKER, DRACO, updates on ESD, Fragmentator, GOAT, IRC, LR-CPCM, L-BFGS, MBIS, meta-GGA TD-DFT gradient, ML-optimized integration grids, 
  MM, NACMEs, nearIR, NEB, NEB-TS, NL-DFT gradient (VV10), 2- and 3-layer-ONIOM, interface openCOSMO-RS, QMMM,   
  Crystal-QMMM, RESP, rigid body optimization, SF, symmetry and pop. for TD-DFT, various functionals, SOLVATOR                                   
                                                                         
[Other institutions]                                                     
  V. Asgeirsson          : NEB                                           
  Christoph Bannwarth    : sTDA-DFT, sTD-DFT, PBEh-3c, B97-3c, D3        
  Giovanni Bistoni       : ETS/NOCV, ADLD/ADEX, COVALED                  
  Martin Brehm           : Molecular dynamics                            
  Ronald Cardenas        : ETS/NOCV                                      
  Martina Colucci        : COVALED                                       
  Sebastian Ehlert       : rSCAN, r2SCAN, r2SCAN-3c, D4, dhf basis sets  
  Marvin Friede          : D4 for Fr, Ra, Ac-Lr                          
  Lars Goerigk           : TD-DFT with DH, B97 family of functionals     
  Stefan Grimme          : VdW corrections, initial TS optimization, DFT functionals, gCP, sTDA/sTD-DF 
  Waldemar Hujo          : DFT-NL                                        
  H. Jonsson             : NEB                                           
  Holger Kruse           : gCP                                           
  Marcel Mueller         : wB97X-3c, vDZP basis set                      
  Hagen Neugebauer       : wr2SCAN, Native XTB                           
  Gianluca Regni         : ADLD/ADEX                                     
  Tobias Risthaus        : pre 6.0 range-separated hybrid DFT and stability analysis
  Lukas Wittmann         : regularized MP2, r2SCAN double-hybrids, wr2SCAN        
                                                                         
We gratefully acknowledge several colleagues who have allowed us to      
interface, adapt or use parts of their codes:                            
  Ed Valeev, F. Pavosevic, A. Kumar             : LibInt (2-el integral package), F12 methods 
  Garnet Chan, S. Sharma, J. Yang, R. Olivares  : DMRG                   
  Ulf Ekstrom                                   : XCFun DFT Library      
  Mihaly Kallay                                 : mrcc  (arbitrary order and MRCC methods)
  Frank Weinhold                                : gennbo (NPA and NBO analysis)           
  Simon Mueller                                 : openCOSMO-RS                            
  Christopher J. Cramer and Donald G. Truhlar   : smd solvation model                     
  S Lehtola, MJT Oliveira, MAL Marques          : LibXC Library                           
  Liviu Ungur et al                             : ANISO software                          


 Your calculation uses the libint2 library for the computation of 2-el integrals
 For citations please refer to: http://libint.valeyev.net

 Your ORCA version has been built with support for libXC version: 7.0.0
 For citations please refer to: https://libxc.gitlab.io

 This ORCA versions uses:
   CBLAS   interface :  Fast vector & matrix operations
   LAPACKE interface :  Fast linear algebra routines
   SCALAPACK package :  Parallel linear algebra routines
   Shared memory     :  Shared parallel matrices
   BLAS/LAPACK       :  OpenBLAS 0.3.29  USE64BITINT DYNAMIC_ARCH NO_AFFINITY Haswell SINGLE_THREADED
        Core in use  :  Haswell
   Copyright (c) 2011-2014, The OpenBLAS Project


  ***********************************
  * Starting time: Wed Dec 31 11:15:42 2025
  * Host name:     BOOK-611GI2U5BQ
  * Process ID:    203599
  * Working dir.:  /home/a_limbo/IR_lab/TFTFE/B3LYP_cc_pVDZ
  ***********************************

Warning: RI is on but no J-basis has been assigned. Assigning Def2/J (nothing to worry about!)
================================================================================

----- Orbital basis set information -----
Your calculation utilizes the basis: cc-pVDZ 
       H, B-Ne : Obtained from the ccRepo (grant-hill.group.shef.ac.uk/ccrepo) Feb. 2017
                 T. H. Dunning, Jr., J. Chem. Phys. 90, 1007 (1989)
            He : Obtained from the ccRepo (grant-hill.group.shef.ac.uk/ccrepo) Feb. 2017
                 D. E. Woon, T. H. Dunning, Jr., J. Chem. Phys. 100, 2975 (1994)
  Li-Be, Na-Mg : Obtained from the ccRepo (grant-hill.group.shef.ac.uk/ccrepo) Feb. 2017
                 B. P. Prascher, D. E. Woon, K. A. Peterson, T. H. Dunning, Jr., A. K. Wilson, Theor. Chem. Acc. 128, 69 (2011)
         Al-Ar : Obtained from the ccRepo (grant-hill.group.shef.ac.uk/ccrepo) Feb. 2017
                 D. E. Woon, T. H. Dunning, Jr., J. Chem. Phys. 98, 1358 (1993)
            Ca : Obtained from the Peterson Research Group Website (tyr0.chem.wsu.edu/~kipeters) Feb. 2017
                 J. Koput, K. A. Peterson, J. Phys. Chem. 106, 9595 (2002)
         Sc-Zn : Obtained from the ccRepo (grant-hill.group.shef.ac.uk/ccrepo) Feb. 2017
                 N. B. Balabanov, K. A. Peterson, J. Chem. Phys. 123, 064107 (2005)
                 N. B. Balabanov, K. A. Peterson, J. Chem. Phys. 125, 074110 (2006)
         Ga-Kr : Obtained from the ccRepo (grant-hill.group.shef.ac.uk/ccrepo) Feb. 2017
                 A. K. Wilson, D. E. Woon, K. A. Peterson, T. H. Dunning, Jr., J. Chem. Phys. 110, 7667 (1999)

----- AuxJ basis set information -----
Your calculation utilizes the auxiliary basis: def2/J
   H-Rn: F. Weigend, Phys. Chem. Chem. Phys. 8, 1057 (2006).
   Fr-Lr: K. Eichkorn, F. Weigend, O. Treutler, R. Ahlrichs; Theor. Chem. Acc. 97, 119 (1997).

================================================================================
                                        WARNINGS
                       Please study these warnings very carefully!
================================================================================


WARNING: Geometry Optimization
  ===> : Switching off AutoStart
         For restart on a previous wavefunction, please use MOREAD

================================================================================
                                       INPUT FILE
================================================================================
NAME = TFTFE_C2.inp
|  1> # avogadro generated ORCA input file 
|  2> # Basic Mode
|  3> # 
|  4> ! B3LYP cc-pVDZ OPT FREQ 
|  5> 
|  6> * xyz 0 1
|  7>    C       -2.07321        0.81607       -0.08813
|  8>    F       -1.81331        1.90900       -0.83615
|  9>    F       -3.29339        0.98833        0.47347
| 10>    F       -2.15137       -0.25298       -0.90746
| 11>    C       -1.02235        0.62017        1.00174
| 12>    H       -1.01049        1.51363        1.63522
| 13>    H       -1.30641       -0.23833        1.61967
| 14>    O        0.27561        0.36956        0.45524
| 15>    C        1.34093        0.63414        1.36454
| 16>    F        2.48819        0.51428        0.64873
| 17>    C        1.38913       -0.25395        2.61742
| 18>    F        1.24529        1.94353        1.71865
| 19>    F        1.46126       -1.57102        2.29072
| 20>    F        2.48341        0.01965        3.37579
| 21>    H        0.50479       -0.10965        3.24371
| 22> *
| 23> 
| 24> 
| 25>                          ****END OF INPUT****
================================================================================

                       *****************************
                       * Geometry Optimization Run *
                       *****************************

Geometry optimization settings:
Update method            Update   .... BFGS
Choice of coordinates    CoordSys .... (2022) Redundant Internals
Initial Hessian          InHess   .... Almloef's Model
Max. no of cycles        MaxIter  .... 50

Convergence Tolerances:
Energy Change            TolE     ....  5.0000e-06 Eh
Max. Gradient            TolMAXG  ....  3.0000e-04 Eh/bohr
RMS Gradient             TolRMSG  ....  1.0000e-04 Eh/bohr
Max. Displacement        TolMAXD  ....  4.0000e-03 bohr
RMS Displacement         TolRMSD  ....  2.0000e-03 bohr
Strict Convergence                .... False

------------------------------------------------------------------------------
                        ORCA OPTIMIZATION COORDINATE SETUP
------------------------------------------------------------------------------

The optimization will be done in redundant internal coordinates (2022)
Making redundant internal coordinates   ...  (2022 redundants) done
Evaluating the initial hessian          ...  (Almloef) done
Evaluating the coordinates              ...  done
Calculating the B-matrix                .... done
Calculating the G-matrix                .... done
The number of degrees of freedom        ....   57

    -----------------------------------------------------------------
                    Redundant Internal Coordinates


    -----------------------------------------------------------------
         Definition                    Initial Value    Approx d2E/dq
    -----------------------------------------------------------------
      1. B(F   1,C   0)                  1.3497         0.603016   
      2. B(F   2,C   0)                  1.3542         0.592999   
      3. B(F   3,C   0)                  1.3492         0.604084   
      4. B(C   4,C   0)                  1.5266         0.378273   
      5. B(H   5,C   4)                  1.0953         0.353141   
      6. B(H   6,C   4)                  1.0952         0.353235   
      7. B(O   7,C   4)                  1.4304         0.482337   
      8. B(C   8,O   7)                  1.4254         0.491375   
      9. B(F   9,C   8)                  1.3576         0.585775   
     10. B(C  10,C   8)                  1.5365         0.364802   
     11. B(F  11,C   8)                  1.3598         0.580974   
     12. B(F  12,C  10)                  1.3589         0.582888   
     13. B(F  13,C  10)                  1.3592         0.582241   
     14. B(H  14,C  10)                  1.0932         0.355872   
     15. A(F   2,C   0,F   3)          107.4838         0.419315   
     16. A(F   1,C   0,F   3)          108.4352         0.420570   
     17. A(F   3,C   0,C   4)          111.8235         0.391522   
     18. A(F   2,C   0,C   4)          109.9068         0.390256   
     19. A(F   1,C   0,F   2)          107.4781         0.419183   
     20. A(F   1,C   0,C   4)          111.5328         0.391401   
     21. A(C   0,C   4,H   5)          108.4017         0.323945   
     22. A(H   6,C   4,O   7)          108.2739         0.335203   
     23. A(H   5,C   4,O   7)          110.7350         0.335188   
     24. A(C   0,C   4,O   7)          111.9837         0.378111   
     25. A(H   5,C   4,H   6)          108.4149         0.289076   
     26. A(C   0,C   4,H   6)          108.9561         0.323960   
     27. A(C   4,O   7,C   8)          113.6987         0.393222   
     28. A(O   7,C   8,C  10)          115.8708         0.376956   
     29. A(O   7,C   8,F   9)          106.1920         0.405123   
     30. A(C  10,C   8,F  11)          110.2697         0.386412   
     31. A(F   9,C   8,F  11)          106.3658         0.415504   
     32. A(O   7,C   8,F  11)          106.9956         0.404535   
     33. A(F   9,C   8,C  10)          110.6350         0.386966   
     34. A(F  13,C  10,H  14)          107.7612         0.344915   
     35. A(F  12,C  10,H  14)          107.9750         0.344980   
     36. A(C   8,C  10,H  14)          111.4370         0.322432   
     37. A(F  12,C  10,F  13)          106.6488         0.415300   
     38. A(C   8,C  10,F  13)          111.3385         0.386558   
     39. A(C   8,C  10,F  12)          111.4592         0.386633   
     40. D(H   5,C   4,C   0,F   3)   -179.6401         0.011410   
     41. D(H   5,C   4,C   0,F   1)     58.7449         0.011410   
     42. D(H   6,C   4,C   0,F   2)     57.4416         0.011410   
     43. D(H   6,C   4,C   0,F   3)    -61.8471         0.011410   
     44. D(H   5,C   4,C   0,F   2)    -60.3515         0.011410   
     45. D(H   6,C   4,C   0,F   1)    176.5380         0.011410   
     46. D(C   8,O   7,C   4,C   0)    159.5598         0.018357   
     47. D(C   8,O   7,C   4,H   6)    -80.2928         0.018357   
     48. D(C   8,O   7,C   4,H   5)     38.4397         0.018357   
     49. D(F  11,C   8,O   7,C   4)    -59.1154         0.019069   
     50. D(C  10,C   8,O   7,C   4)     64.3086         0.019069   
     51. D(F   9,C   8,O   7,C   4)   -172.4162         0.019069   
     52. D(F  12,C  10,C   8,F  11)    178.9270         0.010658   
     53. D(F  12,C  10,C   8,F   9)    -63.6837         0.010658   
     54. D(F  12,C  10,C   8,O   7)     57.2322         0.010658   
     55. D(F  13,C  10,C   8,F  11)    -62.1218         0.010658   
     56. D(F  13,C  10,C   8,F   9)     55.2675         0.010658   
     57. D(F  13,C  10,C   8,O   7)    176.1834         0.010658   
    -----------------------------------------------------------------

Number of atoms                         .... 15
Number of degrees of freedom            .... 57


         *************************************************************
         *                GEOMETRY OPTIMIZATION CYCLE   1            *
         *************************************************************
---------------------------------
CARTESIAN COORDINATES (ANGSTROEM)
---------------------------------
  C     -2.073210    0.816070   -0.088130
  F     -1.813310    1.909000   -0.836150
  F     -3.293390    0.988330    0.473470
  F     -2.151370   -0.252980   -0.907460
  C     -1.022350    0.620170    1.001740
  H     -1.010490    1.513630    1.635220
  H     -1.306410   -0.238330    1.619670
  O      0.275610    0.369560    0.455240
  C      1.340930    0.634140    1.364540
  F      2.488190    0.514280    0.648730
  C      1.389130   -0.253950    2.617420
  F      1.245290    1.943530    1.718650
  F      1.461260   -1.571020    2.290720
  F      2.483410    0.019650    3.375790
  H      0.504790   -0.109650    3.243710

----------------------------
CARTESIAN COORDINATES (A.U.)
----------------------------
  NO LB      ZA    FRAG     MASS         X           Y           Z
   0 C     6.0000    0    12.011   -3.917799    1.542149   -0.166542
   1 F     9.0000    0    18.998   -3.426659    3.607487   -1.580095
   2 F     9.0000    0    18.998   -6.223605    1.867673    0.894729
   3 F     9.0000    0    18.998   -4.065500   -0.478063   -1.714851
   4 C     6.0000    0    12.011   -1.931962    1.171951    1.893014
   5 H     1.0000    0     1.008   -1.909549    2.860346    3.090118
   6 H     1.0000    0     1.008   -2.468757   -0.450378    3.060733
   7 O     8.0000    0    15.999    0.520827    0.698367    0.860279
   8 C     6.0000    0    12.011    2.533990    1.198351    2.578607
   9 F     9.0000    0    18.998    4.701998    0.971848    1.225922
  10 C     6.0000    0    12.011    2.625075   -0.479896    4.946207
  11 F     9.0000    0    18.998    2.353257    3.672739    3.247778
  12 F     9.0000    0    18.998    2.761381   -2.968798    4.328833
  13 F     9.0000    0    18.998    4.692965    0.037133    6.379319
  14 H     1.0000    0     1.008    0.953915   -0.207208    6.129724

--------------------------------
INTERNAL COORDINATES (ANGSTROEM)
--------------------------------
 C      0   0   0     0.000000000000     0.00000000     0.00000000
 F      1   0   0     1.349658443941     0.00000000     0.00000000
 F      1   2   0     1.354218335425   107.47814376     0.00000000
 F      1   2   3     1.349176985054   108.43519245   115.91122303
 C      1   2   3     1.526597578440   111.53279934   239.46944938
 H      5   1   2     1.095311983683   108.40174357    58.74494373
 H      5   1   2     1.095239616933   108.95613347   176.53797829
 O      5   1   2     1.430443212330   111.98365005   296.28653670
 C      8   5   1     1.425389690155   113.69867739   159.55977661
 F      9   8   5     1.357555112436   106.19198551   187.58381554
 C      9   8   5     1.536468477548   115.87081807    64.30862233
 F      9   8   5     1.359795232305   106.99559349   300.88458923
 F     11   9   8     1.358899927073   111.45921627    57.23218708
 F     11   9   8     1.359202242236   111.33846289   176.18338558
 H     11   9   8     1.093214932984   111.43699507   296.53005983

---------------------------
INTERNAL COORDINATES (A.U.)
---------------------------
 C      0   0   0     0.000000000000     0.00000000     0.00000000
 F      1   0   0     2.550484833382     0.00000000     0.00000000
 F      1   2   0     2.559101779487   107.47814376     0.00000000
 F      1   2   3     2.549575007942   108.43519245   115.91122303
 C      1   2   3     2.884851339960   111.53279934   239.46944938
 H      5   1   2     2.069839680363   108.40174357    58.74494373
 H      5   1   2     2.069702927025   108.95613347   176.53797829
 O      5   1   2     2.703145921430   111.98365005   296.28653670
 C      8   5   1     2.693596148508   113.69867739   159.55977661
 F      9   8   5     2.565407374208   106.19198551   187.58381554
 C      9   8   5     2.903504635969   115.87081807    64.30862233
 F      9   8   5     2.569640587269   106.99559349   300.88458923
 F     11   9   8     2.567948705574   111.45921627    57.23218708
 F     11   9   8     2.568519998438   111.33846289   176.18338558
 H     11   9   8     2.065876828854   111.43699507   296.53005983

---------------------
BASIS SET INFORMATION
---------------------
There are 4 groups of distinct atoms

 Group   1 Type C   : 17s4p1d contracted to 3s2p1d pattern {881/31/1}
 Group   2 Type F   : 17s4p1d contracted to 3s2p1d pattern {881/31/1}
 Group   3 Type H   : 4s1p contracted to 2s1p pattern {31/1}
 Group   4 Type O   : 17s4p1d contracted to 3s2p1d pattern {881/31/1}

Atom   0C    basis set group =>   1
Atom   1F    basis set group =>   2
Atom   2F    basis set group =>   2
Atom   3F    basis set group =>   2
Atom   4C    basis set group =>   1
Atom   5H    basis set group =>   3
Atom   6H    basis set group =>   3
Atom   7O    basis set group =>   4
Atom   8C    basis set group =>   1
Atom   9F    basis set group =>   2
Atom  10C    basis set group =>   1
Atom  11F    basis set group =>   2
Atom  12F    basis set group =>   2
Atom  13F    basis set group =>   2
Atom  14H    basis set group =>   3
---------------------------------
AUXILIARY/J BASIS SET INFORMATION
---------------------------------
There are 4 groups of distinct atoms

 Group   1 Type C   : 12s5p4d2f1g contracted to 6s4p3d1f1g pattern {711111/2111/211/2/1}
 Group   2 Type F   : 12s5p4d2f1g contracted to 6s4p3d1f1g pattern {711111/2111/211/2/1}
 Group   3 Type H   : 5s2p1d contracted to 3s1p1d pattern {311/2/1}
 Group   4 Type O   : 12s5p4d2f1g contracted to 6s4p3d1f1g pattern {711111/2111/211/2/1}

Atom   0C    basis set group =>   1
Atom   1F    basis set group =>   2
Atom   2F    basis set group =>   2
Atom   3F    basis set group =>   2
Atom   4C    basis set group =>   1
Atom   5H    basis set group =>   3
Atom   6H    basis set group =>   3
Atom   7O    basis set group =>   4
Atom   8C    basis set group =>   1
Atom   9F    basis set group =>   2
Atom  10C    basis set group =>   1
Atom  11F    basis set group =>   2
Atom  12F    basis set group =>   2
Atom  13F    basis set group =>   2
Atom  14H    basis set group =>   3
------------------------------------------------------------------------------
                             ORCA STARTUP CALCULATIONS
                           -- RI-GTO INTEGRALS CHOSEN --
------------------------------------------------------------------------------
------------------------------------------------------------------------------
                   ___                                                        
                  /   \      - P O W E R E D   B Y -                         
                 /     \                                                     
                 |  |  |   _    _      __       _____    __    __             
                 |  |  |  | |  | |    /  \     |  _  \  |  |  /  |          
                  \  \/   | |  | |   /    \    | | | |  |  | /  /          
                 / \  \   | |__| |  /  /\  \   | |_| |  |  |/  /          
                |  |  |   |  __  | /  /__\  \  |    /   |      \           
                |  |  |   | |  | | |   __   |  |    \   |  |\   \          
                \     /   | |  | | |  |  |  |  | |\  \  |  | \   \       
                 \___/    |_|  |_| |__|  |__|  |_| \__\ |__|  \__/        
                                                                              
                      - O R C A' S   B I G   F R I E N D -                    
                                      &                                       
                       - I N T E G R A L  F E E D E R -                       
                                                                              
 v1 FN, 2020, v2 2021, v3 2022-2024                                           
------------------------------------------------------------------------------


----------------------
SHARK INTEGRAL PACKAGE
----------------------

Number of atoms                             ...     15
Number of basis functions                   ...    255
Number of shells                            ...    153
Maximum angular momentum                    ...      2
Integral batch strategy                     ... SHARK/LIBINT Hybrid
RI-J (if used) integral strategy            ... SPLIT-RIJ (Revised 2003 algorithm where possible)
Printlevel                                  ...      1
Contraction scheme used                     ... PARTIAL GENERAL contraction
Prescreening option                         ... SCHWARTZ
   Thresh                                   ... 2.500e-11
   Tcut                                     ... 2.500e-12
   Tpresel                                  ... 2.500e-12 
Coulomb Range Separation                    ... NOT USED
Exchange Range Separation                   ... NOT USED
Multipole approximations                    ... NOT USED
Finite Nucleus Model                        ... NOT USED
CABS basis                                  ... NOT available
Auxiliary Coulomb fitting basis             ... AVAILABLE
   # of basis functions in Aux-J            ...    621
   # of shells in Aux-J                     ...    195
   Maximum angular momentum in Aux-J        ...      4
Auxiliary J/K fitting basis                 ... NOT available
Auxiliary Correlation fitting basis         ... NOT available
Auxiliary 'external' fitting basis          ... NOT available

Checking pre-screening integrals            ... done (  0.0 sec) Dimension = 153
Save PGC pre-screening integrals            ... done (  0.0 sec) Dimension = 153
Calculate PGC overlap integrals             ... done (  0.0 sec) Dimension = 81
Calculating pre-screening integrals (ORCA)  ... done (  0.1 sec) Dimension = 81
Shell pair information
Shell pair cut-off parameter TPreSel        ...   2.5e-12
Total number of shell pairs                 ...     11781
Shell pairs after pre-screening             ...      6281
Total number of primitive shell pairs       ...     16881
Primitive shell pairs kept                  ...      8333
          la=0 lb=0:   2593 shell pairs
          la=1 lb=0:   2230 shell pairs
          la=1 lb=1:    344 shell pairs
          la=2 lb=0:    784 shell pairs
          la=2 lb=1:    270 shell pairs
          la=2 lb=2:     60 shell pairs

Checking whether 4 symmetric matrices of dimension 255 fit in memory
:Max Core in MB      =   4096.00
 MB in use           =     10.03
 MB left             =   4085.97
 MB needed           =      1.00
 Data fit in memory  = YES
Calculating RI/J V-Matrix + Cholesky decomp.... done (  0.1 sec)
Calculating Nuclear repulsion               ... done (  0.0 sec) ENN=    835.658273413262 Eh

Diagonalization of the overlap matrix:
Smallest eigenvalue                        ... 3.447e-03
Time for diagonalization                   ...    0.006 sec
Threshold for overlap eigenvalues          ... 1.000e-07
Number of eigenvalues below threshold      ... 0
Time for construction of square roots      ...    0.002 sec
Total time needed                          ...    0.009 sec

-------------------
DFT GRID GENERATION
-------------------

General Integration Accuracy     IntAcc      ... 4.388
Radial Grid Type                 RadialGrid  ... OptM3 with GC (2021)
Angular Grid (max. ang.)         AngularGrid ... 4 (Lebedev-302)
Angular grid pruning method      GridPruning ... 4 (adaptive)
Weight generation scheme         WeightScheme... mBecke (2022)
Basis function cutoff            BFCut       ... 1.0000e-11
Integration weight cutoff        WCut        ... 1.0000e-14
Partially contracted basis set               ... off
Rotationally invariant grid construction     ... off
Angular grids for H and He will be reduced by one unit

Total number of grid points                  ...    82547
Total number of batches                      ...     1298
Average number of points per batch           ...       63
Average number of grid points per atom       ...     5503

---------------------
SHARK GRID GENERATION
---------------------

General Integration Accuracy     IntAcc      ... 4.388
Radial Grid Type                 RadialGrid  ... OptM3 with GC (2021)
Angular Grid (max. ang.)         AngularGrid ... 4 (Lebedev-302)
Angular grid pruning method      GridPruning ... 4 (adaptive)
Weight generation scheme         WeightScheme... mBecke (2022)
Basis function cutoff            BFCut       ... 1.0000e-11
Integration weight cutoff        WCut        ... 1.0000e-14
Partially contracted basis set               ... off
Rotationally invariant grid construction     ... off
Angular grids for H and He will be reduced by one unit
Steep s-basis detected: some atoms will have their radial
                        grid points doubled.

Total number of grid points                  ...   156446
Total number of batches                      ...     2453
Average number of points per batch           ...       63
Average number of grid points per atom       ...    10430

--------------------
COSX GRID GENERATION
--------------------

GRIDX 1
-------
General Integration Accuracy     IntAcc      ... 3.816
Radial Grid Type                 RadialGrid  ... OptM3 with GC (2021)
Angular Grid (max. ang.)         AngularGrid ... 1 (Lebedev-50)
Angular grid pruning method      GridPruning ... 4 (adaptive)
Weight generation scheme         WeightScheme... mBecke (2022)
Basis function cutoff            BFCut       ... 1.0000e-11
Integration weight cutoff        WCut        ... 1.0000e-14
Partially contracted basis set               ... on
Rotationally invariant grid construction     ... off
Angular grids for H and He will be reduced by one unit

Total number of grid points                  ...    10433
Total number of batches                      ...       89
Average number of points per batch           ...      117
Average number of grid points per atom       ...      696
UseSFitting                                  ... on

GRIDX 2
-------
General Integration Accuracy     IntAcc      ... 4.020
Radial Grid Type                 RadialGrid  ... OptM3 with GC (2021)
Angular Grid (max. ang.)         AngularGrid ... 2 (Lebedev-110)
Angular grid pruning method      GridPruning ... 4 (adaptive)
Weight generation scheme         WeightScheme... mBecke (2022)
Basis function cutoff            BFCut       ... 1.0000e-11
Integration weight cutoff        WCut        ... 1.0000e-14
Partially contracted basis set               ... on
Rotationally invariant grid construction     ... off
Angular grids for H and He will be reduced by one unit

Total number of grid points                  ...    24219
Total number of batches                      ...      196
Average number of points per batch           ...      123
Average number of grid points per atom       ...     1615
UseSFitting                                  ... on

GRIDX 3
-------
General Integration Accuracy     IntAcc      ... 4.338
Radial Grid Type                 RadialGrid  ... OptM3 with GC (2021)
Angular Grid (max. ang.)         AngularGrid ... 3 (Lebedev-194)
Angular grid pruning method      GridPruning ... 4 (adaptive)
Weight generation scheme         WeightScheme... mBecke (2022)
Basis function cutoff            BFCut       ... 1.0000e-11
Integration weight cutoff        WCut        ... 1.0000e-14
Partially contracted basis set               ... on
Rotationally invariant grid construction     ... off
Angular grids for H and He will be reduced by one unit

Total number of grid points                  ...    53556
Total number of batches                      ...      425
Average number of points per batch           ...      126
Average number of grid points per atom       ...     3570
UseSFitting                                  ... on
Grids setup in   5.3 sec
Initializing property integral containers    ... done (  0.0 sec)

SHARK setup successfully completed in   5.7 seconds

Maximum memory used throughout the entire STARTUP-calculation: 58.8 MB
-------------------------------------------------------------------------------
                                 ORCA GUESS
                   Start orbitals & Density for SCF / CASSCF
-------------------------------------------------------------------------------

------------
SCF SETTINGS
------------
Hamiltonian:
 Density Functional     Method          .... DFT(GTOs)
 Exchange Functional    Exchange        .... B88
   X-Alpha parameter    XAlpha          ....  0.666667
   Becke's b parameter  XBeta           ....  0.004200
 Correlation Functional Correlation     .... LYP
 LDA part of GGA corr.  LDAOpt          .... VWN-5
 Gradients option       PostSCFGGA      .... off
 Hybrid DFT is turned on
   Fraction HF Exchange ScalHFX         ....  0.200000
   Scaling of DF-GGA-X  ScalDFX         ....  0.720000
   Scaling of DF-GGA-C  ScalDFC         ....  0.810000
   Scaling of DF-LDA-C  ScalLDAC        ....  1.000000
   Perturbative correction              ....  0.000000
   NL short-range parameter             ....  4.800000
 RI-approximation to the Coulomb term is turned on
   Number of AuxJ basis functions       .... 621
   RIJ-COSX (HFX calculated with COS-X)).... on


General Settings:
 Integral files         IntName         .... TFTFE_C2
 Hartree-Fock type      HFTyp           .... RHF
 Total Charge           Charge          ....    0
 Multiplicity           Mult            ....    1
 Number of Electrons    NEL             ....   98
 Basis Dimension        Dim             ....  183
 Nuclear Repulsion      ENuc            ....    835.6582734133 Eh

Convergence Acceleration:
 AO-DIIS                CNVDIIS         .... on
   Start iteration      DIISMaxIt       ....    12
   Startup error        DIISStart       ....  0.200000
   # of expansion vecs  DIISMaxEq       ....     5
   Bias factor          DIISBfac        ....   1.050
   Max. coefficient     DIISMaxC        ....  10.000
 MO-DIIS                CNVKDIIS        .... off
 Trust-Rad. Augm. Hess. CNVTRAH         .... auto
   Auto Start mean grad. ratio tolernc. ....  1.125000
   Auto Start start iteration           ....    50
   Auto Start num. interpolation iter.  ....    10
   Max. Number of Micro iterations      ....    24
   Max. Number of Macro iterations      .... Maxiter - #DIIS iter
   Number of Davidson start vectors     ....     2
   Converg. threshold    (grad. norm)   ....   1.000e-05
   Grad. Scal. Fac. for Micro threshold ....   0.100
   Minimum threshold for Micro iter.    ....   1.000e-02
   NR start threshold (gradient norm)   ....   1.000e-04
   Initial trust radius                 ....   0.400
   Minimum AH scaling param. (alpha)    ....   1.000
   Maximum AH scaling param. (alpha)    .... 1000.000
   Quad. conv. algorithm                .... NR
   White noise on init. David. guess    .... on
   Maximum white noise                  ....   0.010
   Pseudo random numbers                .... off
   Inactive MOs                         .... canonical
   Orbital update algorithm             .... Taylor
   Preconditioner                       .... Diag
   Full preconditioner red. dimension   ....   250
 SOSCF                 CNVSOSCF           .... on
   Start iteration     SOSCFMaxIt         ....   150
   Startup grad/error  SOSCFStart         ....  0.003300
   Hessian update      SOSCFHessUp        .... L-BFGS
   Autom. constraints  SOSCFAutoConstrain .... off
 Level Shifting         CNVShift        .... on
   Level shift para.    LevelShift      ....    0.2500
   Turn off err/grad.   ShiftErr        ....    0.0010
 Zerner damping         CNVZerner       .... off
 Static damping         CNVDamp         .... on
   Fraction old density DampFac         ....    0.7000
   Max. Damping (<1)    DampMax         ....    0.9800
   Min. Damping (>=0)   DampMin         ....    0.0000
   Turn off err/grad.   DampErr         ....    0.1000

SCF Procedure:
 Maximum # iterations   MaxIter         ....   125
 SCF integral mode      SCFMode         .... Direct
   Integral package                     .... SHARK and LIBINT hybrid scheme
 Reset frequency        DirectResetFreq ....    20
 Integral Threshold     Thresh          ....  2.500e-11 Eh
 Primitive CutOff       TCut            ....  2.500e-12 Eh

Convergence Tolerance:
 Convergence Check Mode ConvCheckMode   .... Total+1el-Energy
 Convergence forced     ConvForced      .... 0
 Energy Change          TolE            ....  1.000e-08 Eh
 1-El. energy change                    ....  1.000e-05 Eh
 Orbital Gradient       TolG            ....  1.000e-05
 Orbital Rotation angle TolX            ....  1.000e-05
 DIIS Error             TolErr          ....  5.000e-07

------------------------------
INITIAL GUESS: MODEL POTENTIAL
------------------------------
Loading Hartree-Fock densities                     ... done
Calculating cut-offs                               ... done
Initializing the effective Hamiltonian             ... done
Setting up the integral package (SHARK)            ... done
Starting the Coulomb interaction                   ... done (   0.2 sec)
Making the grid                                    ... done (   0.2 sec)
Mapping shells                                     ... done
Starting the XC term evaluation                    ... done (   0.2 sec)
  promolecular density results
     # of electrons  =     97.998645437
     EX              =   -100.044089470
     EC              =     -3.639912131
     EX+EC           =   -103.684001602
Transforming the Hamiltonian                       ... done (   0.0 sec)
Diagonalizing the Hamiltonian                      ... done (   0.0 sec)
Back transforming the eigenvectors                 ... done (   0.0 sec)
Now organizing SCF variables                       ... done
                      ------------------
                      INITIAL GUESS DONE (   0.7 sec)
                      ------------------
             **** ENERGY FILE WAS UPDATED (TFTFE_C2.en.tmp) ****
Finished Guess after   0.8 sec
Maximum memory used throughout the entire GUESS-calculation: 15.8 MB

-------------------------------------------------------------------------------------------
                                      ORCA LEAN-SCF
                              memory conserving SCF solver
-------------------------------------------------------------------------------------------

----------------------------------------D-I-I-S--------------------------------------------
Iteration    Energy (Eh)           Delta-E    RMSDP     MaxDP     DIISErr   Damp  Time(sec)
-------------------------------------------------------------------------------------------
               ***  Starting incremental Fock matrix formation  ***
    1    -927.7888555350896240     0.00e+00  2.50e-03  6.58e-02  1.91e-01  0.700   6.1
    2    -927.8953962892753680    -1.07e-01  1.38e-03  3.59e-02  7.57e-02  0.700   2.6
                               ***Turning on AO-DIIS***
    3    -927.9306654963309029    -3.53e-02  3.93e-04  9.94e-03  2.26e-02  0.700   2.5
    4    -927.9542660769789109    -2.36e-02  6.44e-04  1.40e-02  1.18e-02  0.000   2.3
                              *** Initializing SOSCF ***
---------------------------------------S-O-S-C-F--------------------------------------
Iteration    Energy (Eh)           Delta-E    RMSDP     MaxDP     MaxGrad    Time(sec)
--------------------------------------------------------------------------------------
    5    -928.0085660628840287    -5.43e-02  1.35e-04  3.80e-03  2.79e-03     2.4
               *** Restarting incremental Fock matrix formation ***
    6    -928.0086760000492632    -1.10e-04  5.31e-05  1.01e-03  3.01e-04     5.7
    7    -928.0086765239402666    -5.24e-07  2.50e-05  5.87e-04  2.92e-04     4.0
    8    -928.0086813422394698    -4.82e-06  7.77e-06  1.46e-04  4.11e-05     3.7
    9    -928.0086814048431734    -6.26e-08  3.07e-06  7.02e-05  2.85e-05     4.1
   10    -928.0086814699554907    -6.51e-08  1.63e-06  2.96e-05  1.34e-05     3.2
   11    -928.0086814733417668    -3.39e-09  7.75e-07  1.52e-05  9.52e-06     2.7
                 **** Energy Check signals convergence ****

               *****************************************************
               *                     SUCCESS                       *
               *           SCF CONVERGED AFTER  11 CYCLES          *
               *****************************************************

Recomputing exchange energy using gridx3       ... done (    8.678 sec)
Old exchange energy                            :    -20.100387455 Eh
New exchange energy                            :    -20.100469875 Eh
Exchange energy change after final integration :     -0.000082421 Eh
Total energy after final integration           :   -928.008763890 Eh
             **** ENERGY FILE WAS UPDATED (TFTFE_C2.en.tmp) ****

----------------
TOTAL SCF ENERGY
----------------

Total Energy       :       -928.00876389045141 Eh          -25252.40227 eV

Components:
Nuclear Repulsion  :        835.65827341326190 Eh           22739.41767 eV
Electronic Energy  :      -1763.66695488311143 Eh          -47991.81770 eV
One Electron Energy:      -2949.27440432111098 Eh          -80253.83657 eV
Two Electron Energy:       1185.60744943799955 Eh           32262.01887 eV

Virial components:
Potential Energy   :      -1851.73090290635332 Eh          -50388.15955 eV
Kinetic Energy     :        923.72213901590192 Eh           25135.75728 eV
Virial Ratio       :          2.00464059990931

DFT components:
N(Alpha)           :       48.999977002316 electrons
N(Beta)            :       48.999977002316 electrons
N(Total)           :       97.999954004632 electrons
E(X)               :      -80.036275973827 Eh       
E(C)               :       -4.257583314426 Eh       
E(XC)              :      -84.293859288253 Eh       

---------------
SCF CONVERGENCE
---------------

  Last Energy change         ...    3.3863e-09  Tolerance :   1.0000e-08
  Last MAX-Density change    ...    1.5200e-05  Tolerance :   1.0000e-07
  Last RMS-Density change    ...    7.7466e-07  Tolerance :   5.0000e-09
  Last DIIS Error            ...    2.7942e-03  Tolerance :   5.0000e-07
  Last Orbital Gradient      ...    9.5247e-06  Tolerance :   1.0000e-05
  Last Orbital Rotation      ...    6.1978e-06  Tolerance :   1.0000e-05


----------------
ORBITAL ENERGIES
----------------

  NO   OCC          E(Eh)            E(eV) 
   0   2.0000     -24.743239      -673.2978 
   1   2.0000     -24.742432      -673.2758 
   2   2.0000     -24.737509      -673.1418 
   3   2.0000     -24.737498      -673.1415 
   4   2.0000     -24.737292      -673.1359 
   5   2.0000     -24.733302      -673.0274 
   6   2.0000     -24.732417      -673.0033 
   7   2.0000     -19.208523      -522.6905 
   8   2.0000     -10.447377      -284.2876 
   9   2.0000     -10.432383      -283.8796 
  10   2.0000     -10.382846      -282.5316 
  11   2.0000     -10.291414      -280.0436 
  12   2.0000      -1.321516       -35.9603 
  13   2.0000      -1.303819       -35.4787 
  14   2.0000      -1.280086       -34.8329 
  15   2.0000      -1.235403       -33.6170 
  16   2.0000      -1.233820       -33.5740 
  17   2.0000      -1.232769       -33.5454 
  18   2.0000      -1.222978       -33.2789 
  19   2.0000      -1.091441       -29.6996 
  20   2.0000      -0.815584       -22.1932 
  21   2.0000      -0.779212       -21.2034 
  22   2.0000      -0.696886       -18.9632 
  23   2.0000      -0.665549       -18.1105 
  24   2.0000      -0.614894       -16.7321 
  25   2.0000      -0.607059       -16.5189 
  26   2.0000      -0.606131       -16.4937 
  27   2.0000      -0.600965       -16.3531 
  28   2.0000      -0.586830       -15.9685 
  29   2.0000      -0.568175       -15.4608 
  30   2.0000      -0.559933       -15.2366 
  31   2.0000      -0.557292       -15.1647 
  32   2.0000      -0.502724       -13.6798 
  33   2.0000      -0.478992       -13.0340 
  34   2.0000      -0.473057       -12.8725 
  35   2.0000      -0.471479       -12.8296 
  36   2.0000      -0.458015       -12.4632 
  37   2.0000      -0.453662       -12.3448 
  38   2.0000      -0.443532       -12.0691 
  39   2.0000      -0.435792       -11.8585 
  40   2.0000      -0.431488       -11.7414 
  41   2.0000      -0.427979       -11.6459 
  42   2.0000      -0.423117       -11.5136 
  43   2.0000      -0.419618       -11.4184 
  44   2.0000      -0.415410       -11.3039 
  45   2.0000      -0.414692       -11.2843 
  46   2.0000      -0.392435       -10.6787 
  47   2.0000      -0.364584        -9.9208 
  48   2.0000      -0.330079        -8.9819 
  49   0.0000       0.027566         0.7501 
  50   0.0000       0.045947         1.2503 
  51   0.0000       0.063766         1.7352 
  52   0.0000       0.074056         2.0152 
  53   0.0000       0.095957         2.6111 
  54   0.0000       0.107962         2.9378 
  55   0.0000       0.162709         4.4275 
  56   0.0000       0.178603         4.8600 
  57   0.0000       0.188181         5.1207 
  58   0.0000       0.196637         5.3508 
  59   0.0000       0.198522         5.4021 
*Only the first 10 virtual orbitals were printed.

                    ********************************
                    * MULLIKEN POPULATION ANALYSIS *
                    ********************************

-----------------------
MULLIKEN ATOMIC CHARGES
-----------------------
   0 C :    0.461607
   1 F :   -0.156118
   2 F :   -0.166861
   3 F :   -0.155774
   4 C :    0.098051
   5 H :    0.050853
   6 H :    0.047752
   7 O :   -0.295325
   8 C :    0.385857
   9 F :   -0.153219
  10 C :    0.395340
  11 F :   -0.171532
  12 F :   -0.179665
  13 F :   -0.178578
  14 H :    0.017612
Sum of atomic charges:    0.0000000

--------------------------------
MULLIKEN REDUCED ORBITAL CHARGES
--------------------------------
  0 C s       :     2.894075  s :     2.894075
      pz      :     0.822755  p :     2.346337
      px      :     0.812856
      py      :     0.710725
      dz2     :     0.046362  d :     0.297981
      dxz     :     0.060074
      dyz     :     0.072119
      dx2y2   :     0.066551
      dxy     :     0.052875

  1 F s       :     3.897470  s :     3.897470
      pz      :     1.758686  p :     5.252429
      px      :     1.885250
      py      :     1.608493
      dz2     :     0.000795  d :     0.006219
      dxz     :     0.000542
      dyz     :     0.002443
      dx2y2   :     0.001443
      dxy     :     0.000996

  2 F s       :     3.899430  s :     3.899430
      pz      :     1.832890  p :     5.261353
      px      :     1.540512
      py      :     1.887951
      dz2     :     0.000716  d :     0.006077
      dxz     :     0.002042
      dyz     :     0.000263
      dx2y2   :     0.002001
      dxy     :     0.001055

  3 F s       :     3.897373  s :     3.897373
      pz      :     1.731390  p :     5.252172
      px      :     1.894502
      py      :     1.626279
      dz2     :     0.000874  d :     0.006230
      dxz     :     0.000525
      dyz     :     0.002661
      dx2y2   :     0.001395
      dxy     :     0.000774

  4 C s       :     3.038742  s :     3.038742
      pz      :     0.984492  p :     2.764473
      px      :     0.764480
      py      :     1.015501
      dz2     :     0.008978  d :     0.098734
      dxz     :     0.029196
      dyz     :     0.015455
      dx2y2   :     0.023796
      dxy     :     0.021309

  5 H s       :     0.920394  s :     0.920394
      pz      :     0.009697  p :     0.028753
      px      :     0.003814
      py      :     0.015242

  6 H s       :     0.925320  s :     0.925320
      pz      :     0.009263  p :     0.026928
      px      :     0.003784
      py      :     0.013881

  7 O s       :     3.783108  s :     3.783108
      pz      :     1.542941  p :     4.496786
      px      :     1.138588
      py      :     1.815258
      dz2     :     0.002412  d :     0.015430
      dxz     :     0.006404
      dyz     :     0.002075
      dx2y2   :     0.002339
      dxy     :     0.002199

  8 C s       :     2.979186  s :     2.979186
      pz      :     0.868781  p :     2.361933
      px      :     0.725711
      py      :     0.767440
      dz2     :     0.044536  d :     0.273024
      dxz     :     0.059615
      dyz     :     0.054473
      dx2y2   :     0.063085
      dxy     :     0.051314

  9 F s       :     3.900192  s :     3.900192
      pz      :     1.769528  p :     5.246904
      px      :     1.582877
      py      :     1.894499
      dz2     :     0.000781  d :     0.006123
      dxz     :     0.002438
      dyz     :     0.000397
      dx2y2   :     0.001628
      dxy     :     0.000879

 10 C s       :     2.983611  s :     2.983611
      pz      :     0.893497  p :     2.420216
      px      :     0.812932
      py      :     0.713787
      dz2     :     0.030822  d :     0.200833
      dxz     :     0.035945
      dyz     :     0.045395
      dx2y2   :     0.050205
      dxy     :     0.038466

 11 F s       :     3.902938  s :     3.902938
      pz      :     1.883631  p :     5.262631
      px      :     1.887225
      py      :     1.491776
      dz2     :     0.000790  d :     0.005962
      dxz     :     0.000117
      dyz     :     0.001546
      dx2y2   :     0.002410
      dxy     :     0.001100

 12 F s       :     3.901687  s :     3.901687
      pz      :     1.886896  p :     5.271939
      px      :     1.901324
      py      :     1.483720
      dz2     :     0.000800  d :     0.006039
      dxz     :     0.000110
      dyz     :     0.001536
      dx2y2   :     0.002434
      dxy     :     0.001159

 13 F s       :     3.900941  s :     3.900941
      pz      :     1.769001  p :     5.271585
      px      :     1.619711
      py      :     1.882873
      dz2     :     0.000842  d :     0.006052
      dxz     :     0.002376
      dyz     :     0.000499
      dx2y2   :     0.001398
      dxy     :     0.000938

 14 H s       :     0.956651  s :     0.956651
      pz      :     0.009399  p :     0.025737
      px      :     0.013128
      py      :     0.003210



                     *******************************
                     * LOEWDIN POPULATION ANALYSIS *
                     *******************************

----------------------
LOEWDIN ATOMIC CHARGES
----------------------
   0 C :   -0.152127
   1 F :    0.050387
   2 F :    0.042512
   3 F :    0.050875
   4 C :   -0.035763
   5 H :    0.028042
   6 H :    0.028356
   7 O :    0.017869
   8 C :   -0.136484
   9 F :    0.054238
  10 C :   -0.060645
  11 F :    0.037413
  12 F :    0.029417
  13 F :    0.031898
  14 H :    0.014013

-------------------------------
LOEWDIN REDUCED ORBITAL CHARGES
-------------------------------
  0 C s       :     2.847439  s :     2.847439
      pz      :     0.900497  p :     2.614439
      px      :     0.897280
      py      :     0.816663
      dz2     :     0.094582  d :     0.690248
      dxz     :     0.152135
      dyz     :     0.171694
      dx2y2   :     0.162838
      dxy     :     0.108999

  1 F s       :     3.692406  s :     3.692406
      pz      :     1.757728  p :     5.248700
      px      :     1.862340
      py      :     1.628632
      dz2     :     0.000843  d :     0.008507
      dxz     :     0.000641
      dyz     :     0.003728
      dx2y2   :     0.002059
      dxy     :     0.001236

  2 F s       :     3.694582  s :     3.694582
      pz      :     1.818548  p :     5.254616
      px      :     1.567345
      py      :     1.868723
      dz2     :     0.000964  d :     0.008290
      dxz     :     0.002932
      dyz     :     0.000306
      dx2y2   :     0.002957
      dxy     :     0.001131

  3 F s       :     3.692221  s :     3.692221
      pz      :     1.734556  p :     5.248382
      px      :     1.870496
      py      :     1.643330
      dz2     :     0.000938  d :     0.008522
      dxz     :     0.000578
      dyz     :     0.004112
      dx2y2   :     0.002027
      dxy     :     0.000867

  4 C s       :     2.827615  s :     2.827615
      pz      :     1.017781  p :     2.941685
      px      :     0.846462
      py      :     1.077442
      dz2     :     0.020191  d :     0.266462
      dxz     :     0.080213
      dyz     :     0.053581
      dx2y2   :     0.064128
      dxy     :     0.048349

  5 H s       :     0.888537  s :     0.888537
      pz      :     0.028670  p :     0.083422
      px      :     0.012816
      py      :     0.041935

  6 H s       :     0.891015  s :     0.891015
      pz      :     0.027562  p :     0.080629
      px      :     0.015334
      py      :     0.037734

  7 O s       :     3.428310  s :     3.428310
      pz      :     1.552602  p :     4.526499
      px      :     1.203135
      py      :     1.770762
      dz2     :     0.003350  d :     0.027323
      dxz     :     0.012656
      dyz     :     0.002192
      dx2y2   :     0.004884
      dxy     :     0.004240

  8 C s       :     2.863198  s :     2.863198
      pz      :     0.952103  p :     2.641474
      px      :     0.823991
      py      :     0.865379
      dz2     :     0.095231  d :     0.631813
      dxz     :     0.144281
      dyz     :     0.134605
      dx2y2   :     0.153924
      dxy     :     0.103773

  9 F s       :     3.693365  s :     3.693365
      pz      :     1.767824  p :     5.244090
      px      :     1.603626
      py      :     1.872640
      dz2     :     0.000886  d :     0.008308
      dxz     :     0.003681
      dyz     :     0.000427
      dx2y2   :     0.002335
      dxy     :     0.000978

 10 C s       :     2.855633  s :     2.855633
      pz      :     0.978877  p :     2.704320
      px      :     0.905509
      py      :     0.819934
      dz2     :     0.070306  d :     0.500692
      dxz     :     0.100247
      dyz     :     0.115720
      dx2y2   :     0.132465
      dxy     :     0.081954

 11 F s       :     3.696316  s :     3.696316
      pz      :     1.863184  p :     5.258010
      px      :     1.865979
      py      :     1.528847
      dz2     :     0.001173  d :     0.008262
      dxz     :     0.000147
      dyz     :     0.002059
      dx2y2   :     0.003683
      dxy     :     0.001200

 12 F s       :     3.695280  s :     3.695280
      pz      :     1.868665  p :     5.267077
      px      :     1.880774
      py      :     1.517638
      dz2     :     0.001162  d :     0.008226
      dxz     :     0.000127
      dyz     :     0.002054
      dx2y2   :     0.003578
      dxy     :     0.001304

 13 F s       :     3.694088  s :     3.694088
      pz      :     1.764753  p :     5.265797
      px      :     1.640773
      py      :     1.860271
      dz2     :     0.001063  d :     0.008217
      dxz     :     0.003494
      dyz     :     0.000583
      dx2y2   :     0.001942
      dxy     :     0.001135

 14 H s       :     0.907762  s :     0.907762
      pz      :     0.027726  p :     0.078225
      px      :     0.039704
      py      :     0.010795



                      *****************************
                      * MAYER POPULATION ANALYSIS *
                      *****************************

  NA   - Mulliken gross atomic population
  ZA   - Total nuclear charge
  QA   - Mulliken gross atomic charge
  VA   - Mayer's total valence
  BVA  - Mayer's bonded valence
  FA   - Mayer's free valence

  ATOM       NA         ZA         QA         VA         BVA        FA
  0 C      5.5384     6.0000     0.4616     4.5830     4.5830     0.0000
  1 F      9.1561     9.0000    -0.1561     1.2464     1.2464     0.0000
  2 F      9.1669     9.0000    -0.1669     1.2330     1.2330     0.0000
  3 F      9.1558     9.0000    -0.1558     1.2462     1.2462     0.0000
  4 C      5.9019     6.0000     0.0981     3.9844     3.9844    -0.0000
  5 H      0.9491     1.0000     0.0509     0.9972     0.9972    -0.0000
  6 H      0.9522     1.0000     0.0478     0.9757     0.9757    -0.0000
  7 O      8.2953     8.0000    -0.2953     2.1780     2.1780    -0.0000
  8 C      5.6141     6.0000     0.3859     4.4030     4.4030     0.0000
  9 F      9.1532     9.0000    -0.1532     1.2522     1.2522     0.0000
 10 C      5.6047     6.0000     0.3953     4.2075     4.2075     0.0000
 11 F      9.1715     9.0000    -0.1715     1.2138     1.2138    -0.0000
 12 F      9.1797     9.0000    -0.1797     1.2068     1.2068    -0.0000
 13 F      9.1786     9.0000    -0.1786     1.2130     1.2130     0.0000
 14 H      0.9824     1.0000     0.0176     0.9773     0.9773     0.0000

  Mayer bond orders larger than 0.100000
B(  0-C ,  1-F ) :   1.1777 B(  0-C ,  2-F ) :   1.1445 B(  0-C ,  3-F ) :   1.1793 
B(  0-C ,  4-C ) :   1.0276 B(  4-C ,  5-H ) :   0.9265 B(  4-C ,  6-H ) :   0.9292 
B(  4-C ,  7-O ) :   0.9944 B(  7-O ,  8-C ) :   1.0924 B(  8-C ,  9-F ) :   1.1742 
B(  8-C , 10-C ) :   0.9333 B(  8-C , 11-F ) :   1.1068 B( 10-C , 12-F ) :   1.1351 
B( 10-C , 13-F ) :   1.1333 B( 10-C , 14-H ) :   0.9319 

-------
TIMINGS
-------

Total SCF time: 0 days 0 hours 0 min 50 sec 

Total time                  ....      50.475 sec
Sum of individual times     ....      48.021 sec  ( 95.1%)

SCF preparation             ....       0.126 sec  (  0.2%)
Fock matrix formation       ....      47.752 sec  ( 94.6%)
  Startup                   ....       0.005 sec  (  0.0% of F)
  Split-RI-J                ....       3.984 sec  (  8.3% of F)
  Chain of spheres X        ....      39.058 sec  ( 81.8% of F)
  XC integration            ....       7.005 sec  ( 14.7% of F)
    XC Preparation          ....       0.000 sec  (  0.0% of XC)
    Basis function eval.    ....       3.071 sec  ( 43.8% of XC)
    Density eval.           ....       1.647 sec  ( 23.5% of XC)
    XC-Functional eval.     ....       0.414 sec  (  5.9% of XC)
    XC-Potential eval.      ....       1.566 sec  ( 22.4% of XC)
Diagonalization             ....       0.000 sec  (  0.0%)
Density matrix formation    ....       0.018 sec  (  0.0%)
Total Energy calculation    ....       0.005 sec  (  0.0%)
Population analysis         ....       0.007 sec  (  0.0%)
Orbital Transformation      ....       0.020 sec  (  0.0%)
Orbital Orthonormalization  ....       0.000 sec  (  0.0%)
DIIS solution               ....       0.056 sec  (  0.1%)
SOSCF solution              ....       0.039 sec  (  0.1%)
Finished LeanSCF after  50.5 sec

Maximum memory used throughout the entire LEANSCF-calculation: 26.7 MB

------------------------------------------------------------------------------
                         ORCA PROPERTY INTEGRAL CALCULATIONS
------------------------------------------------------------------------------

GBWName                                   ... TFTFE_C2.gbw
Number of atoms                           ...     15
Number of basis functions                 ...    255
Max core memory                           ...   4096 MB

Dipole integrals                          ... YES
Quadrupole integrals                      ...  NO
Linear momentum integrals                 ...  NO
Angular momentum integrals                ...  NO
Higher moments length integrals           ...  NO
Higher moments velocity integrals         ...  NO
Kinetic energy integrals                  ...  NO
GIAO right hand sides                     ...  NO
GIAO dipole derivative integrals          ...  NO
SOC integrals                             ...  NO
EPR diamagnetic integrals (GIAO)          ...  NO
EPR gauge integrals                       ...  NO
Field gradient integrals                  ...  NO (   0 nuclei)
Spin-dipole/Fermi contact integrals       ...  NO (   0 nuclei)
Contact density integrals                 ...  NO (   0 nuclei)
Nucleus-orbit integrals                   ...  NO (   0 nuclei)
Geometric perturbations                   ...  NO (  15 nuclei)

Choice of electric origin   ... Center of mass
Position of electric origin ... (  0.0583,  0.9103,  1.8999) 
Choice of magnetic origin   ... GIAO
Position of magnetic origin ... (  0.0000,  0.0000,  0.0000) 

Calculating integrals                     ... Electric Dipole (Length)     done (  0.0 sec)

Property integrals calculated in   0.0 sec

Maximum memory used throughout the entire PROPINT-calculation: 15.9 MB

-------------------------   --------------------
FINAL SINGLE POINT ENERGY      -928.008763890451
-------------------------   --------------------

------------------------------------------------------------------------------
                         ORCA SCF GRADIENT CALCULATION
------------------------------------------------------------------------------

Nuc. rep. gradient        (SHARK) ... done (  0.0 sec)
HCore & Overlap gradient  (SHARK) ... done (  0.2 sec)
Split-RIJ-J gradient      (SHARK) ... done (  1.6 sec)
done ( 27.9 sec)
XC gradient                       ... done (  4.2 sec)

------------------
CARTESIAN GRADIENT
------------------

   1   C   :   -0.004493456    0.000306773    0.006099481
   2   F   :    0.000151779    0.004890189   -0.001649432
   3   F   :   -0.005888973    0.000980333   -0.001861728
   4   F   :   -0.001367823   -0.004345170   -0.002058237
   5   C   :   -0.003359705    0.004250767   -0.006158444
   6   H   :    0.002189017   -0.004744474    0.000497158
   7   H   :    0.007953118    0.003778345   -0.000905404
   8   O   :   -0.017337020    0.000649569   -0.015624598
   9   C   :    0.005464784   -0.007018489    0.039935169
  10   F   :    0.012779166    0.005357553   -0.006717502
  11   C   :   -0.003262817    0.009438632   -0.010876547
  12   F   :   -0.002221300    0.000109605   -0.012341895
  13   F   :    0.002926736   -0.003055473    0.008342303
  14   F   :    0.000369402   -0.007286957    0.005553742
  15   H   :    0.006097090   -0.003311202   -0.002234067

Difference to translation invariance:
           :    0.0000000001    0.0000000000   -0.0000000001

Difference to rotation invariance:
           :    0.0002234219    0.0004825544   -0.0002334840

Norm of the Cartesian gradient     ...    0.0581173530
RMS gradient                       ...    0.0086636235
MAX gradient                       ...    0.0399351693

-------
TIMINGS
-------

Total SCF gradient time     ....       33.891 sec

Densities                   ....       0.001 sec  (  0.0%)
One electron gradient       ....       0.204 sec  (  0.6%)
RI-J Coulomb gradient       ....       1.576 sec  (  4.7%)
COSX gradient               ....      27.887 sec  ( 82.3%)
XC gradient                 ....       4.222 sec  ( 12.5%)

Maximum memory used throughout the entire SCFGRAD-calculation: 33.9 MB
------------------------------------------------------------------------------
                         ORCA GEOMETRY RELAXATION STEP
------------------------------------------------------------------------------

Reading the OPT-File                    .... done
Getting information on internals        .... done
Copying old internal coords+grads       .... done
Making the new internal coordinates     .... (2022 redundants) done
Validating the new internal coordinates .... (2022 redundants) done
Calculating the B-matrix                .... done
Calculating the G,G- and P matrices     .... done
Transforming gradient to internals      .... done
Projecting the internal gradient        .... done
Number of atoms                         ....  15
Number of internal coordinates          ....  57
Current Energy                          ....  -928.008763890 Eh
Current gradient norm                   ....     0.058117353 Eh/bohr
Maximum allowed component of the step   ....  0.300
Current trust radius                    ....  0.300
Evaluating the initial hessian          ....  (Almloef) done
Projecting the Hessian                  .... done
Forming the augmented Hessian           .... done
Diagonalizing the augmented Hessian     .... done
Last element of RFO vector              ....  0.985760459
Lowest eigenvalues of augmented Hessian:
 -0.008549614  0.010697375  0.011410553  0.018388044  0.019089177
Length of the computed step             ....  0.170584685
The final length of the internal step   ....  0.170584685
Converting the step to Cartesian space:
 Initial RMS(Int)=    0.0225944935
Transforming coordinates:
 Iter   0:  RMS(Cart)=    0.0681163659 RMS(Int)=    0.0224652641
 Iter   5:  RMS(Cart)=    0.0000000171 RMS(Int)=    0.0000000132
done
Storing new coordinates                 .... done

                                .--------------------.
          ----------------------|Geometry convergence|-------------------------
          Item                value                   Tolerance       Converged
          ---------------------------------------------------------------------
          RMS gradient        0.0075201504            0.0001000000      NO
          MAX gradient        0.0293248172            0.0003000000      NO
          RMS step            0.0225944935            0.0020000000      NO
          MAX step            0.0586584232            0.0040000000      NO
          -------------------------------------------------------------------------
          ........................................................
          Max(Bonds)      0.0310      Max(Angles)    3.06
          Max(Dihed)        2.66      Max(Improp)    0.00
          ---------------------------------------------------------------------

The optimization has not yet converged - more geometry cycles are needed


    ---------------------------------------------------------------------------
                         Redundant Internal Coordinates
                            (Angstroem and degrees)

        Definition                    Value    dE/dq     Step     New-Value
    ----------------------------------------------------------------------------
     1. B(F   1,C   0)                1.3497  0.004904 -0.0042    1.3454   
     2. B(F   2,C   0)                1.3542  0.004651 -0.0041    1.3501   
     3. B(F   3,C   0)                1.3492  0.004781 -0.0041    1.3450   
     4. B(C   4,C   0)                1.5266  0.007848 -0.0107    1.5159   
     5. B(H   5,C   4)                1.0953 -0.003563  0.0052    1.1005   
     6. B(H   6,C   4)                1.0952 -0.005536  0.0081    1.1033   
     7. B(O   7,C   4)                1.4304  0.002922 -0.0031    1.4273   
     8. B(C   8,O   7)                1.4254  0.029325 -0.0310    1.3943   
     9. B(F   9,C   8)                1.3576  0.013865 -0.0123    1.3452   
    10. B(C  10,C   8)                1.5365  0.003279 -0.0046    1.5318   
    11. B(F  11,C   8)                1.3598 -0.002948  0.0026    1.3624   
    12. B(F  12,C  10)                1.3589  0.001105 -0.0010    1.3579   
    13. B(F  13,C  10)                1.3592  0.001931 -0.0017    1.3575   
    14. B(H  14,C  10)                1.0932 -0.006642  0.0096    1.1029   
    15. A(F   2,C   0,F   3)          107.48 -0.003334    0.45    107.93   
    16. A(F   1,C   0,F   3)          108.44  0.001211   -0.16    108.27   
    17. A(F   3,C   0,C   4)          111.82 -0.000835    0.12    111.94   
    18. A(F   2,C   0,C   4)          109.91  0.007230   -1.02    108.88   
    19. A(F   1,C   0,F   2)          107.48 -0.003265    0.46    107.94   
    20. A(F   1,C   0,C   4)          111.53 -0.001257    0.19    111.73   
    21. A(C   0,C   4,H   5)          108.40 -0.000454   -0.44    107.96   
    22. A(H   6,C   4,O   7)          108.27 -0.012246    2.15    110.43   
    23. A(H   5,C   4,O   7)          110.73 -0.004672    0.74    111.48   
    24. A(C   0,C   4,O   7)          111.98  0.016709   -2.90    109.08   
    25. A(H   5,C   4,H   6)          108.41 -0.001066    1.06    109.47   
    26. A(C   0,C   4,H   6)          108.96  0.001361   -0.51    108.44   
    27. A(C   4,O   7,C   8)          113.70 -0.008567    1.22    114.92   
    28. A(O   7,C   8,C  10)          115.87  0.009224   -1.69    114.18   
    29. A(O   7,C   8,F   9)          106.19  0.000095   -0.50    105.69   
    30. A(C  10,C   8,F  11)          110.27  0.011590   -1.60    108.67   
    31. A(F   9,C   8,F  11)          106.37 -0.006338    1.70    108.07   
    32. A(O   7,C   8,F  11)          107.00 -0.016484    3.06    110.06   
    33. A(F   9,C   8,C  10)          110.64 -0.000178   -0.56    110.08   
    34. A(F  13,C  10,H  14)          107.76 -0.005340    0.82    108.58   
    35. A(F  12,C  10,H  14)          107.97 -0.006947    1.08    109.05   
    36. A(C   8,C  10,H  14)          111.44 -0.000602    0.05    111.48   
    37. A(F  12,C  10,F  13)          106.65 -0.013172    1.83    108.48   
    38. A(C   8,C  10,F  13)          111.34  0.012399   -1.79    109.55   
    39. A(C   8,C  10,F  12)          111.46  0.012115   -1.75    109.71   
    40. D(H   5,C   4,C   0,F   3)   -179.64  0.000336   -0.21   -179.85   
    41. D(H   5,C   4,C   0,F   1)     58.74  0.000263   -0.22     58.53   
    42. D(H   6,C   4,C   0,F   2)     57.44 -0.000360    0.48     57.92   
    43. D(H   6,C   4,C   0,F   3)    -61.85 -0.000437    0.52    -61.32   
    44. D(H   5,C   4,C   0,F   2)    -60.35  0.000412   -0.25    -60.60   
    45. D(H   6,C   4,C   0,F   1)    176.54 -0.000510    0.51    177.05   
    46. D(C   8,O   7,C   4,C   0)    159.56  0.001772   -1.50    158.06   
    47. D(C   8,O   7,C   4,H   6)    -80.29  0.005694   -2.50    -82.80   
    48. D(C   8,O   7,C   4,H   5)     38.44 -0.005838    0.54     38.98   
    49. D(F  11,C   8,O   7,C   4)    -59.12 -0.007277    0.42    -58.69   
    50. D(C  10,C   8,O   7,C   4)     64.31  0.001289   -0.43     63.88   
    51. D(F   9,C   8,O   7,C   4)   -172.42  0.007271   -2.66   -175.07   
    52. D(F  12,C  10,C   8,F  11)    178.93 -0.001185   -0.80    178.13   
    53. D(F  12,C  10,C   8,F   9)    -63.68 -0.001962   -0.02    -63.71   
    54. D(F  12,C  10,C   8,O   7)     57.23  0.004751   -2.36     54.87   
    55. D(F  13,C  10,C   8,F  11)    -62.12 -0.001528   -0.84    -62.96   
    56. D(F  13,C  10,C   8,F   9)     55.27 -0.002305   -0.07     55.20   
    57. D(F  13,C  10,C   8,O   7)    176.18  0.004407   -2.41    173.78   
    ----------------------------------------------------------------------------

Geometry step timings:
Preparation and reading OPT file:      0.000 s ( 1.946 %)
Internal coordinates            :      0.000 s ( 2.073 %)
B/P matrices and projection     :      0.001 s (26.348 %)
Hessian update/contruction      :      0.001 s (24.338 %)
Making the step                 :      0.001 s (18.278 %)
Converting the step to Cartesian:      0.000 s ( 2.616 %)
Storing new data                :      0.000 s ( 1.467 %)
Checking convergence            :      0.000 s ( 1.244 %)
Final printing                  :      0.000 s (11.738 %)
Total time                      :      0.003 s

Time for energy+gradient        :     91.147 s
Time for complete geometry iter :     91.198 s

         *************************************************************
         *                GEOMETRY OPTIMIZATION CYCLE   2            *
         *************************************************************
---------------------------------
CARTESIAN COORDINATES (ANGSTROEM)
---------------------------------
  C     -2.028653    0.799862   -0.081349
  F     -1.736656    1.885842   -0.819946
  F     -3.259968    0.973419    0.444564
  F     -2.074382   -0.266762   -0.899502
  C     -1.035928    0.605631    1.047636
  H     -1.053849    1.510092    1.674359
  H     -1.354940   -0.263570    1.647697
  O      0.260443    0.379699    0.494874
  C      1.322329    0.656387    1.355136
  F      2.437095    0.488955    0.621071
  C      1.372313   -0.238118    2.597649
  F      1.272044    1.957606    1.755817
  F      1.381201   -1.543000    2.221980
  F      2.509245    0.016137    3.294407
  H      0.507787   -0.059750    3.258768

----------------------------
CARTESIAN COORDINATES (A.U.)
----------------------------
  NO LB      ZA    FRAG     MASS         X           Y           Z
   0 C     6.0000    0    12.011   -3.833599    1.511520   -0.153726
   1 F     9.0000    0    18.998   -3.281804    3.563725   -1.549473
   2 F     9.0000    0    18.998   -6.160447    1.839496    0.840105
   3 F     9.0000    0    18.998   -3.920015   -0.504107   -1.699812
   4 C     6.0000    0    12.011   -1.957620    1.144476    1.979744
   5 H     1.0000    0     1.008   -1.991485    2.853660    3.164081
   6 H     1.0000    0     1.008   -2.560465   -0.498075    3.113695
   7 O     8.0000    0    15.999    0.492165    0.717527    0.935176
   8 C     6.0000    0    12.011    2.498839    1.240392    2.560835
   9 F     9.0000    0    18.998    4.605443    0.923991    1.173654
  10 C     6.0000    0    12.011    2.593296   -0.449978    4.908844
  11 F     9.0000    0    18.998    2.403814    3.699340    3.318014
  12 F     9.0000    0    18.998    2.610092   -2.915848    4.198933
  13 F     9.0000    0    18.998    4.741786    0.030495    6.225527
  14 H     1.0000    0     1.008    0.959578   -0.112912    6.158178

--------------------------------
INTERNAL COORDINATES (ANGSTROEM)
--------------------------------
 C      0   0   0     0.000000000000     0.00000000     0.00000000
 F      1   0   0     1.345415303667     0.00000000     0.00000000
 F      1   2   0     1.350126804562   107.93946406     0.00000000
 F      1   2   3     1.345047160717   108.27277967   116.59554636
 C      1   2   3     1.515860814527   111.72535288   240.31914143
 H      5   1   2     1.100524500246   107.94878006    58.53680088
 H      5   1   2     1.103336504233   108.46029679   177.03834171
 O      5   1   2     1.427293736097   109.06641966   297.31320181
 C      8   5   1     1.394348989473   114.92039862   158.07997170
 F      9   8   5     1.345209962309   105.64851999   184.92181711
 C      9   8   5     1.531821153997   114.16806927    63.85633854
 F      9   8   5     1.362441379880   110.05084942   301.33709041
 F     11   9   8     1.357911478096   109.69152087    54.86627082
[...]
     25      -0.004321  -0.000100   0.036963   0.094320  -0.020690  -0.007321
     26       0.299875   0.058026  -0.036186  -0.108786   0.012244  -0.010097
     27       0.077647   0.006637  -0.007740  -0.004652   0.010572   0.001091
     28      -0.006876  -0.000393  -0.001747  -0.007103   0.000103   0.000415
     29      -0.065510  -0.007314   0.006481   0.013120  -0.006997   0.000167
     30      -0.007816  -0.004115  -0.072748   0.086781   0.012989   0.003746
     31       0.022774  -0.014322  -0.114697  -0.133608   0.025023   0.004236
     32      -0.040226   0.001741  -0.010562   0.166109  -0.009278   0.005759
     33       0.007483   0.000277  -0.001185   0.004645   0.002866   0.000498
     34       0.003134   0.003682  -0.002285  -0.018536   0.007853   0.002449
     35      -0.016955  -0.001647  -0.000132   0.001222   0.002951   0.000892
     36       0.002311   0.001759   0.019446  -0.001216  -0.002970  -0.000809
     37      -0.026400   0.000068   0.004489   0.021371  -0.003670  -0.000752
     38      -0.012499  -0.002618  -0.014385  -0.012257   0.001175  -0.000531
     39       0.024002   0.004226  -0.011508  -0.006102   0.000463   0.001600
     40      -0.001494   0.001288   0.013569   0.005327  -0.002713  -0.000842
     41       0.003018  -0.002265   0.011445  -0.028288   0.002258  -0.000577
     42      -0.106150  -0.045797   0.614421  -0.528554  -0.021685  -0.043166
     43       0.523619   0.139643   0.709133   0.463042  -0.081407  -0.013192
     44      -0.344323  -0.103299   0.291880  -0.643060  -0.001465  -0.029157
                 42         43         44    
      0       0.001985   0.000128   0.000188
      1       0.000338  -0.000007   0.003022
      2       0.000485  -0.000077   0.000099
      3      -0.000023   0.000007   0.000019
      4      -0.000205  -0.000062  -0.000527
      5       0.000262   0.000093   0.000241
      6      -0.000516  -0.000073   0.000000
      7      -0.000002   0.000006  -0.000293
      8       0.000132   0.000026  -0.000025
      9      -0.000013   0.000022  -0.000157
     10       0.000018   0.000056  -0.000507
     11       0.000190   0.000102  -0.000421
     12       0.016381   0.002890   0.008867
     13       0.014449   0.000516   0.094752
     14      -0.062475  -0.009561   0.014063
     15      -0.031398  -0.006004   0.038589
     16       0.488675   0.085009  -0.640698
     17       0.341902   0.058908  -0.469794
     18      -0.196468  -0.027112  -0.145736
     19      -0.654116  -0.090809  -0.492181
     20       0.388958   0.053230   0.307043
     21       0.002026  -0.000106   0.000012
     22      -0.000427   0.000120  -0.000408
     23       0.000538  -0.000355  -0.000253
     24      -0.001486   0.000903  -0.000107
     25      -0.000295  -0.002199   0.000142
     26      -0.001593   0.000403   0.000507
     27       0.000269  -0.000423  -0.000042
     28       0.000001  -0.000047   0.000020
     29      -0.000014   0.000450  -0.000021
     30      -0.007745   0.054654   0.001116
     31       0.003628  -0.023034  -0.000168
     32       0.008703  -0.060047  -0.000953
     33      -0.000065  -0.000171   0.000221
     34       0.000205   0.000707  -0.000201
     35       0.000223   0.000206  -0.000156
     36       0.000021  -0.000813  -0.000096
     37       0.000057  -0.000447  -0.000089
     38       0.000012   0.000134  -0.000030
     39      -0.000096   0.000403  -0.000006
     40      -0.000099   0.000373  -0.000023
     41       0.000008   0.000625   0.000003
     42       0.094814  -0.643395  -0.011805
     43      -0.043229   0.287469   0.005169
     44      -0.100780   0.688204   0.010989


-----------
IR SPECTRUM
-----------

 Mode   freq       eps      Int      T**2         TX        TY        TZ
       cm**-1   L/(mol*cm) km/mol    a.u.
----------------------------------------------------------------------------
  6:     27.82   0.000139    0.70  0.001560  ( 0.022728  0.030700  0.010044)
  7:     35.05   0.000037    0.19  0.000329  ( 0.016883  0.002606  0.006120)
  8:     59.63   0.000136    0.69  0.000714  ( 0.019071 -0.007893  0.016980)
  9:     90.67   0.000445    2.25  0.001533  ( 0.013808 -0.032699 -0.016519)
 10:    146.73   0.000491    2.48  0.001045  (-0.017023 -0.018660  0.020174)
 11:    176.37   0.000581    2.93  0.001027  (-0.019042 -0.025708 -0.001921)
 12:    238.08   0.000641    3.24  0.000840  ( 0.001905  0.015618  0.024344)
 13:    259.07   0.000368    1.86  0.000443  ( 0.017600  0.006677 -0.009406)
 14:    324.57   0.000027    0.14  0.000026  (-0.003919 -0.003008 -0.001253)
 15:    355.99   0.000274    1.39  0.000240  ( 0.001514  0.014721 -0.004636)
 16:    372.53   0.000035    0.18  0.000029  ( 0.005206  0.001191 -0.000702)
 17:    414.63   0.000558    2.82  0.000420  ( 0.019692  0.003740 -0.004273)
 18:    508.07   0.000100    0.51  0.000061  ( 0.003381  0.002286 -0.006689)
 19:    529.34   0.000299    1.51  0.000176  ( 0.004887  0.011970  0.003044)
 20:    553.90   0.001979   10.00  0.001115  (-0.020470  0.022168 -0.014302)
 21:    580.44   0.000702    3.55  0.000377  ( 0.014848  0.010748 -0.006435)
 22:    589.97   0.003686   18.63  0.001950  (-0.031319  0.008286 -0.030002)
 23:    655.13   0.007559   38.20  0.003601  ( 0.026669 -0.013054  0.052143)
 24:    728.09   0.001980   10.00  0.000849  ( 0.004624 -0.004857  0.028347)
 25:    847.91   0.006574   33.22  0.002420  ( 0.035332  0.009070 -0.032999)
 26:    860.58   0.006253   31.60  0.002268  (-0.005541 -0.014839  0.044908)
 27:    981.24   0.007231   36.54  0.002300  ( 0.002151 -0.047869  0.001922)
 28:   1094.79   0.019233   97.19  0.005482  (-0.010021 -0.072406  0.011796)
 29:   1109.75   0.032473  164.11  0.009132  (-0.022564  0.089659  0.024159)
 30:   1128.37   0.007679   38.80  0.002124  (-0.008571  0.044476 -0.008485)
 31:   1161.08   0.034212  172.89  0.009195  ( 0.059932  0.037467  0.064804)
 32:   1186.44   0.066734  337.25  0.017553  ( 0.115707  0.064119  0.007315)
 33:   1188.73   0.037853  191.29  0.009937  (-0.070734  0.052512  0.046652)
 34:   1224.37   0.095616  483.21  0.024370  (-0.134803  0.020602 -0.075987)
 35:   1303.58   0.045909  232.01  0.010990  ( 0.057811 -0.008966 -0.086992)
 36:   1308.33   0.004438   22.43  0.001058  (-0.028707 -0.014293  0.005482)
 37:   1317.91   0.024778  125.22  0.005867  ( 0.016413  0.074565 -0.006154)
 38:   1368.12   0.004204   21.24  0.000959  (-0.016695 -0.019187 -0.017663)
 39:   1418.65   0.000584    2.95  0.000128  (-0.010890 -0.003128  0.000054)
 40:   1437.06   0.006139   31.02  0.001333  (-0.031067  0.006114 -0.018183)
 41:   1471.53   0.001938    9.79  0.000411  ( 0.012079 -0.003022  0.015996)
 42:   3045.93   0.001950    9.85  0.000200  ( 0.012093  0.005197 -0.005146)
 43:   3070.82   0.006984   35.29  0.000710  ( 0.021018 -0.010732 -0.012360)
 44:   3113.37   0.001169    5.91  0.000117  ( 0.000073  0.010818 -0.000384)

* The epsilon (eps) is given for a Dirac delta lineshape.
** The dipole moment derivative (T) already includes vibrational overlap.

The first frequency considered to be a vibration is 6
The total number of vibrations considered is 39


--------------------------
THERMOCHEMISTRY AT 298.15K
--------------------------

Temperature         ...   298.15 K
Pressure            ...     1.00 atm
Total Mass          ...   200.05 AMU
Quasi RRHO          ...     True
Cut-Off Frequency   ...     1.00 cm^-1

Throughout the following assumptions are being made:
  (1) The electronic state is orbitally nondegenerate
  (2) There are no thermally accessible electronically excited states
  (3) Hindered rotations indicated by low frequency modes are not
      treated as such but are treated as vibrations and this may
      cause some error
  (4) All equations used are the standard statistical mechanics
      equations for an ideal gas
  (5) All vibrations are strictly harmonic

freq.      27.82  E(vib)   ...       0.55 
freq.      35.05  E(vib)   ...       0.54 
freq.      59.63  E(vib)   ...       0.51 
freq.      90.67  E(vib)   ...       0.47 
freq.     146.73  E(vib)   ...       0.41 
freq.     176.37  E(vib)   ...       0.38 
freq.     238.08  E(vib)   ...       0.32 
freq.     259.07  E(vib)   ...       0.30 
freq.     324.57  E(vib)   ...       0.24 
freq.     355.99  E(vib)   ...       0.22 
freq.     372.53  E(vib)   ...       0.21 
freq.     414.63  E(vib)   ...       0.19 
freq.     508.07  E(vib)   ...       0.14 
freq.     529.34  E(vib)   ...       0.13 
freq.     553.90  E(vib)   ...       0.12 
freq.     580.44  E(vib)   ...       0.11 
freq.     589.97  E(vib)   ...       0.10 
freq.     655.13  E(vib)   ...       0.08 
freq.     728.09  E(vib)   ...       0.06 
freq.     847.91  E(vib)   ...       0.04 
freq.     860.58  E(vib)   ...       0.04 
freq.     981.24  E(vib)   ...       0.02 
freq.    1094.79  E(vib)   ...       0.02 
freq.    1109.75  E(vib)   ...       0.02 
freq.    1128.37  E(vib)   ...       0.01 
freq.    1161.08  E(vib)   ...       0.01 
freq.    1186.44  E(vib)   ...       0.01 
freq.    1188.73  E(vib)   ...       0.01 
freq.    1224.37  E(vib)   ...       0.01 
freq.    1303.58  E(vib)   ...       0.01 
freq.    1308.33  E(vib)   ...       0.01 
freq.    1317.91  E(vib)   ...       0.01 
freq.    1368.12  E(vib)   ...       0.01 
freq.    1418.65  E(vib)   ...       0.00 
freq.    1437.06  E(vib)   ...       0.00 
freq.    1471.53  E(vib)   ...       0.00 
freq.    3045.93  E(vib)   ...       0.00 
freq.    3070.82  E(vib)   ...       0.00 
freq.    3113.37  E(vib)   ...       0.00 

------------
INNER ENERGY
------------

The inner energy is: U= E(el) + E(ZPE) + E(vib) + E(rot) + E(trans)
    E(el)   - is the total energy from the electronic structure calculation
              = E(kin-el) + E(nuc-el) + E(el-el) + E(nuc-nuc)
    E(ZPE)  - the the zero temperature vibrational energy from the frequency calculation
    E(vib)  - the the finite temperature correction to E(ZPE) due to population
              of excited vibrational states
    E(rot)  - is the rotational thermal energy
    E(trans)- is the translational thermal energy

Summary of contributions to the inner energy U:
Electronic energy                ...   -928.01536886 Eh
Zero point energy                ...      0.08266248 Eh      51.87 kcal/mol
Thermal vibrational correction   ...      0.00846758 Eh       5.31 kcal/mol
Thermal rotational correction    ...      0.00141627 Eh       0.89 kcal/mol
Thermal translational correction ...      0.00141627 Eh       0.89 kcal/mol
-----------------------------------------------------------------------
Total thermal energy                   -927.92140625 Eh


Summary of corrections to the electronic energy:
(perhaps to be used in another calculation)
Total thermal correction                  0.01130013 Eh       7.09 kcal/mol
Non-thermal (ZPE) correction              0.08266248 Eh      51.87 kcal/mol
-----------------------------------------------------------------------
Total correction                          0.09396261 Eh      58.96 kcal/mol


--------
ENTHALPY
--------

The enthalpy is H = U + kB*T
                kB is Boltzmann's constant
Total thermal energy              ...   -927.92140625 Eh 
Thermal Enthalpy correction       ...      0.00094421 Eh       0.59 kcal/mol
-----------------------------------------------------------------------
Total Enthalpy                    ...   -927.92046204 Eh


Note: Only C1 symmetry has been detected, increase convergence thresholds 
      if your molecule has a higher symmetry. Symmetry factor of 1.0 is   
      used for the rotational entropy correction. 
 

Note: Rotational entropy computed according to Herzberg 
Infrared and Raman Spectra, Chapter V,1, Van Nostrand Reinhold, 1945 
Point Group:  C1, Symmetry Number:   1  
Rotational constants in cm-1:     0.059039     0.015774     0.014682 

Vibrational entropy computed according to the QRRHO of S. Grimme
Chem.Eur.J. 2012 18 9955 using a reference frequency of 100.0 cm-1


-------
ENTROPY
-------

The entropy contributions are T*S = T*(S(el)+S(vib)+S(rot)+S(trans))
     S(el)   - electronic entropy
     S(vib)  - vibrational entropy
     S(rot)  - rotational entropy
     S(trans)- translational entropy
The entropies will be listed as multiplied by the temperature to get
units of energy

Electronic entropy                ...      0.00000000 Eh      0.00 kcal/mol
Vibrational entropy               ...      0.01521161 Eh      9.55 kcal/mol
Rotational entropy                ...      0.01479826 Eh      9.29 kcal/mol
Translational entropy             ...      0.01985330 Eh     12.46 kcal/mol
-----------------------------------------------------------------------
Final entropy term                ...      0.04986317 Eh     31.29 kcal/mol

In case the symmetry of your molecule has not been determined correctly
or in case you have a reason to use a different symmetry number we print 
out the resulting rotational entropy values for sn=1,12:

 non-linear molecules -----------------------------------
|  sn= 1 | S(rot)=       0.01479826 Eh      9.29 kcal/mol|
|  sn= 2 | S(rot)=       0.01414381 Eh      8.88 kcal/mol|
|  sn= 3 | S(rot)=       0.01376097 Eh      8.64 kcal/mol|
|  sn= 4 | S(rot)=       0.01348935 Eh      8.46 kcal/mol|
|  sn= 5 | S(rot)=       0.01327866 Eh      8.33 kcal/mol|
|  sn= 6 | S(rot)=       0.01310652 Eh      8.22 kcal/mol|
|  sn= 7 | S(rot)=       0.01296097 Eh      8.13 kcal/mol|
|  sn= 8 | S(rot)=       0.01283489 Eh      8.05 kcal/mol|
|  sn= 9 | S(rot)=       0.01272368 Eh      7.98 kcal/mol|
|  sn=10 | S(rot)=       0.01262421 Eh      7.92 kcal/mol|
|  sn=11 | S(rot)=       0.01253422 Eh      7.87 kcal/mol|
|  sn=12 | S(rot)=       0.01245206 Eh      7.81 kcal/mol|
 linear molecules ---------------------------------------
|  Dinfh | S(rot)=       0.00931132 Eh      5.84 kcal/mol|
|  Cinfv | S(rot)=       0.00996577 Eh      6.25 kcal/mol|
 --------------------------------------------------------


-------------------
GIBBS FREE ENERGY
-------------------

The Gibbs free energy is G = H - T*S

Total enthalpy                    ...   -927.92046204 Eh 
Total entropy correction          ...     -0.04986317 Eh    -31.29 kcal/mol
-----------------------------------------------------------------------
Final Gibbs free energy         ...   -927.97032521 Eh

For completeness - the Gibbs free energy minus the electronic energy
G-E(el)                           ...      0.04504364 Eh     28.27 kcal/mol


Maximum memory used throughout the entire PROP-calculation: 65.6 MB

--------------------------------
SUGGESTED CITATIONS FOR THIS RUN
--------------------------------

Below you find a list of papers that are relevant to this ORCA run
We neither can nor want to force you to cite these papers, but we appreciate if you do
You receive ORCA, which is the product of decades of hard work by many enthusiastic individuals, for free
The only thing we kindly ask in return is that you cite our papers,
We deeply appreciate it, if you show your appreciation for ORCA by not just citing the generic ORCA reference.

Please note that relegating all ORCA citations to the supporting information does *not* help us.
SI sections are not indexed - citations you put there will not count into any citation statistics
But we need these citations in order to attract the funding resources that allow us to do what we are doing

Therefore, if you are a happy ORCA user, please consider citing a few of the papers listed below in the main body of your paper

In addition to the list printed below, the program has created the file TFTFE_C2.bibtex that contains the list in bibtex format
You can import this file easily into all common literature databanks and citation aid programs


List of essential papers. We consider these as the minimum necessary citations

  1. Neese, F.
     Software update: the ORCA program system, version 6.0
     WIRES Comput. Molec. Sci. 2025 15(1), e70019
     doi.org/10.1002/wcms.7019

List of papers to cite with high priority. The work reported in these papers was absolutely
necessary for this run to complete.
Our perspective: the developers of density functionals and basis sets usually get cited in chemistry papers
Good! But without the algorithms to do something with them, the functionals or basis sets would not do anything.
Hence, in our opinion, the algorithm design and method developments papers are equally worthy of getting cited

  1. Neese, F.
     An improvement of the resolution of the identity approximation for the formation of the Coulomb matrix
     J. Comp. Chem. 2003 24(14), 1740-1747
     doi.org/10.1002/jcc.10318
  2. Neese, F.; Wennmohs, F.; Hansen, A.; Becker, U.
     Efficient, approximate and parallel Hartree-Fock and hybrid DFT calculations. A 'chain-of-spheres' algorithm for the Hartree-Fock exchange
     Chem. Phys. 2009 356(1-3), 98-109
     doi.org/10.1016/j.chemphys.2008.10.036
  3. Bykov, D.; Petrenko, T.; Izsak, R.; Kossmann, S.; Becker, U.; Valeev, E.; Neese, F.
     Efficient implementation of the analytic second derivatives of Hartree-Fock and hybrid DFT energies: a detailed analysis of different approximations
     Molec. Phys. 2015 113 , 1961-1977
     doi.org/10.1080/00268976.2015.1025114
  4. Helmich-Paris, B.; de Souza, B.; Neese, F.; Izsák, R.
     An improved chain of spheres for exchange algorithm
     J. Chem. Phys. 2021 155(10), 104109
     doi.org/10.1063/5.0058766
  5. Neese, F.
     The SHARK Integral Generation and Digestion System
     J. Comp. Chem. 2022 44(3), 381
     doi.org/10.1002/jcc.26942

List of suggested additional citations. These are papers that are important in the 'surrounding' of 
of this run, or papers that preceded the highly important papers. If you like your results we are grateful for a citation.

  1. Izsak, R.; Neese, F.
     An overlap fitted chain of spheres exchange method
     J. Chem. Phys. 2011 135 , 144105
     doi.org/10.1063/1.3646921
  2. Izsak, R.; Hansen, A.; Neese, F.
     The resolution of identity and chain of spheres approximations for the LPNO-CCSD singles Fock term
     Molec. Phys. 2012 110 , 2413-2417
     doi.org/10.1080/00268976.2012.687466
  3. Neese, F.
     The ORCA program system
     WIRES Comput. Molec. Sci. 2012 2(1), 73-78
     doi.org/10.1002/wcms.81
  4. Izsak, R.; Neese, F.; Klopper, W.
     Robust fitting techniques in the chain of spheres approximation to the Fock exchange: The role of the complementary space
     J. Chem. Phys. 2013 139 , 
     doi.org/10.1063/1.4819264
  5. Neese, F.
     Software update: the ORCA program system, version 4.0
     WIRES Comput. Molec. Sci. 2018 8(1), 1-6
     doi.org/10.1002/wcms.1327
  6. Neese, F.; Wennmohs, F.; Becker, U.; Riplinger, C.
     The ORCA quantum chemistry program package
     J. Chem. Phys. 2020 152(22), 224108
     doi.org/10.1063/5.0004608
  7. Neese, F.
     Software update: The ORCA program system—Version 5.0
     WIRES Comput. Molec. Sci. 2022 12(1), e1606
     doi.org/10.1002/wcms.1606

List of optional additional citations

  1. Neese, F.
     Approximate second-order SCF convergence for spin unrestricted wavefunctions
     Chem. Phys. Lett. 2000 325(1-3), 93-98
     doi.org/10.1016/s0009-2614(00)00662-x

Timings for individual modules:

Sum of individual times          ...     1476.461 sec (=  24.608 min)
Startup calculation              ...       59.208 sec (=   0.987 min)   4.0 %
SCF iterations                   ...      478.997 sec (=   7.983 min)  32.4 %
Property integrals               ...      119.214 sec (=   1.987 min)   8.1 %
SCF Response                     ...      102.671 sec (=   1.711 min)   7.0 %
Property calculations            ...      337.952 sec (=   5.633 min)  22.9 %
SCF Gradient evaluation          ...      378.376 sec (=   6.306 min)  25.6 %
Geometry relaxation              ...        0.043 sec (=   0.001 min)   0.0 %
                             ****ORCA TERMINATED NORMALLY****
TOTAL RUN TIME: 0 days 0 hours 24 minutes 37 seconds 136 msec
