
                                 *****************
                                 * O   R   C   A *
                                 *****************

                                            #,                                       
                                            ###                                      
                                            ####                                     
                                            #####                                    
                                            ######                                   
                                           ########,                                 
                                     ,,################,,,,,                         
                               ,,#################################,,                 
                          ,,##########################################,,             
                       ,#########################################, ''#####,          
                    ,#############################################,,   '####,        
                  ,##################################################,,,,####,       
                ,###########''''           ''''###############################       
              ,#####''   ,,,,##########,,,,          '''####'''          '####       
            ,##' ,,,,###########################,,,                        '##       
           ' ,,###''''                  '''############,,,                           
         ,,##''                                '''############,,,,        ,,,,,,###''
      ,#''                                            '''#######################'''  
     '                                                          ''''####''''         
             ,#######,   #######,   ,#######,      ##                                
            ,#'     '#,  ##    ##  ,#'     '#,    #''#        ,####,    ,#,          
            ##       ##  ##   ,#'  ##            #'  '#       #'       ,# #          
            ##       ##  #######   ##           ,######,      #####,      #          
            '#,     ,#'  ##    ##  '#,     ,#' ,#      #,     #,   #      #          
             '#######'   ##     ##  '#######'  #'      '#     '####' #    #          



                #########################################################
                #                        -***-                          #
                #          Department of theory and spectroscopy        #
                #                                                       #
                #                      Frank Neese                      #
                #                                                       #
                #     Directorship, Architecture, Infrastructure        #
                #                    SHARK, DRIVERS                     #
                #        Core code/Algorithms in most modules           #
                #                                                       #
                #        Max Planck Institute fuer Kohlenforschung      #
                #                Kaiser Wilhelm Platz 1                 #
                #                 D-45470 Muelheim/Ruhr                 #
                #                      Germany                          #
                #                                                       #
                #                  All rights reserved                  #
                #                        -***-                          #
                #########################################################


                         Program Version 6.1.0  -  RELEASE   -
                                (GIT: $679e74b$)
                          ($2025-06-10 18:02:51 +0200$)


 With contributions from (in alphabetic order):
[Max-Planck-Institut fuer Kohlenforschung]                               
  Daniel Aravena         : Magnetic Suceptibility                        
  Michael Atanasov       : Ab Initio Ligand Field Theory (pilot matlab implementation)
  Alexander A. Auer      : GIAO ZORA, VPT2 properties, NMR spectrum      
  Ute Becker             : All parallelization in ORCA, NUMFREQ, NUMCALC 
  Giovanni Bistoni       : ED, misc. LED, open-shell LED, HFLD           
  Dmytro Bykov           : pre 5.0 version of the SCF Hessian            
  Marcos Casanova-Páez   : Triplet and SCS-CIS(D). UHF-(DLPNO)-IP/EA/STEOM-CCSD. UHF-CVS-IP/STEOM-CCSD   
  Vijay G. Chilkuri      : MRCI spin determinant printing, contributions to CSF-ICE 
  Pauline Colinet        : FMM embedding                                 
  Dipayan Datta          : RHF DLPNO-CCSD density                        
  Achintya Kumar Dutta   : EOM-CC, STEOM-CC                              
  Nicolas Foglia         : Exact transition moments, OPA infrastructure, MCD improvements    
  Dmitry Ganyushin       : Spin-Orbit,Spin-Spin,Magnetic field MRCI      
  Miquel Garcia-Rates    : C-PCM and meta-GGA Hessian, CCSD/C-PCM, Gaussian charge scheme 
  Tiago L. C. Gouveia    : GS-ROHF, GS-ROCIS                             
  Yang Guo               : DLPNO-NEVPT2, F12-NEVPT2, CIM, IAO-localization        
  Andreas Hansen         : Spin unrestricted coupled pair/coupled cluster methods 
  Ingolf Harden          : AUTO-CI MPn and infrastructure                
  Benjamin Helmich-Paris : MC-RPA, TRAH-(SCF,CASSCF), AVAS, COSX integrals, SCF dyn. polar., MC-PDFT, srDFT 
  Lee Huntington         : MR-EOM, pCC                                   
  Robert Izsak           : Overlap fitted RIJCOSX, COSX-SCS-MP3, EOM     
  Riya Kayal             : Wick's Theorem for AUTO-CI, AUTO-CI UHF-CCSDT 
  Emily Kempfer          : AUTO-CI RHF CISDT and CCSDT, approximate NEVPT4
  Christian Kollmar      : KDIIS, OOCD, Brueckner-CCSD(T), CCSD density, CASPT2, CASPT2-K, improved NEVPT2 
  Axel Koslowski         : Symmetry handling                             
  Simone Kossmann        : meta-GGA functionals, TD-DFT gradient, OOMP2, (MP2 Hessian; deprecated post 5.0) 
  Lucas Lang             : DCDCAS, Hyperfine gauge corrections, ICE-SOC+SSC
  Marvin Lechner         : AUTO-CI (C++ implementation), FIC-MRCC        
  Spencer Leger          : CASSCF response                               
  Dagmar Lenk            : GEPOL surface, SMD, ORCA-2-JSON               
  Dimitrios Liakos       : Extrapolation schemes; Compound Job, Property file
  Dimitrios Manganas     : Further ROCIS development; embedding schemes. LFT, Crystal Embedding 
  Dimitrios Pantazis     : SARC Basis sets                               
  Anastasios Papadopoulos: AUTO-CI, single reference methods and gradients 
  Taras Petrenko         : pre 6.0 DFT Hessian and TD-DFT gradient,  ECA, NRVS 
  Petra Pikulova         : Analytic Raman intensities                    
  Peter Pinski           : DLPNO-MP2, DLPNO-MP2 Gradient                 
  Shashank Vittal Rao    : ES-AILFT, MagRelax                            
  Christoph Reimann      : Effective Core Potentials                     
  Marius Retegan         : Local ZFS, SOC                                
  Christoph Riplinger    : Optimizer, TS searches, QM/MM, DLPNO-CCSD(T), (RO)-DLPNO pert. Triples 
  Michael Roemelt        : Original ROCIS implementation, recursive CI coupling coefficients
  Masaaki Saitow         : Open-shell DLPNO-CCSD energy and density      
  Barbara Sandhoefer     : DKH picture change effects                    
  Yorick L. A. Schmerwitz: GMF and freeze-and-release deltaSCF, NEB S-IDPP initial path                    
  Kantharuban Sivalingam : CASSCF convergence/infrastructure, NEVPT2, NEVPT3, NEVPT4(SD), FIC-MRCI and CEPA variants
  Bernardo de Souza      : ESD, SOC TD-DFT                               
  Georgi L. Stoychev     : AutoAux, RI-MP2 NMR, DLPNO-MP2 response, X2C  
  Van Anh Tran           : RI-MP2 g-tensors                              
  Willem Van den Heuvel  : Paramagnetic NMR                              
  Zikuan Wang            : NOTCH, Electric field optimization            
  Frank Wennmohs         : Technical directorship and infrastructure     
  Hang Xu                : AUTO-CI-Response properties                   
                                                                         
[FACCTs GmbH]                                                            
  Markus Bursch, Nicolas Foglia, Miquel Garcia-Rates, Ingolf Harden, Hagen Neugebauer, Anastasios Papadopoulos, 
  Christoph Riplinger, Bernardo de Souza, Georgi L. Stoychev                                                    
                                                                 
  APM, various basis sets, CI-OPT, improved COSX, DLPNO-Multilevel,           
  DOCKER, DRACO, updates on ESD, Fragmentator, GOAT, IRC, LR-CPCM, L-BFGS, MBIS, meta-GGA TD-DFT gradient, ML-optimized integration grids, 
  MM, NACMEs, nearIR, NEB, NEB-TS, NL-DFT gradient (VV10), 2- and 3-layer-ONIOM, interface openCOSMO-RS, QMMM,   
  Crystal-QMMM, RESP, rigid body optimization, SF, symmetry and pop. for TD-DFT, various functionals, SOLVATOR                                   
                                                                         
[Other institutions]                                                     
  V. Asgeirsson          : NEB                                           
  Christoph Bannwarth    : sTDA-DFT, sTD-DFT, PBEh-3c, B97-3c, D3        
  Giovanni Bistoni       : ETS/NOCV, ADLD/ADEX, COVALED                  
  Martin Brehm           : Molecular dynamics                            
  Ronald Cardenas        : ETS/NOCV                                      
  Martina Colucci        : COVALED                                       
  Sebastian Ehlert       : rSCAN, r2SCAN, r2SCAN-3c, D4, dhf basis sets  
  Marvin Friede          : D4 for Fr, Ra, Ac-Lr                          
  Lars Goerigk           : TD-DFT with DH, B97 family of functionals     
  Stefan Grimme          : VdW corrections, initial TS optimization, DFT functionals, gCP, sTDA/sTD-DF 
  Waldemar Hujo          : DFT-NL                                        
  H. Jonsson             : NEB                                           
  Holger Kruse           : gCP                                           
  Marcel Mueller         : wB97X-3c, vDZP basis set                      
  Hagen Neugebauer       : wr2SCAN, Native XTB                           
  Gianluca Regni         : ADLD/ADEX                                     
  Tobias Risthaus        : pre 6.0 range-separated hybrid DFT and stability analysis
  Lukas Wittmann         : regularized MP2, r2SCAN double-hybrids, wr2SCAN        
                                                                         
We gratefully acknowledge several colleagues who have allowed us to      
interface, adapt or use parts of their codes:                            
  Ed Valeev, F. Pavosevic, A. Kumar             : LibInt (2-el integral package), F12 methods 
  Garnet Chan, S. Sharma, J. Yang, R. Olivares  : DMRG                   
  Ulf Ekstrom                                   : XCFun DFT Library      
  Mihaly Kallay                                 : mrcc  (arbitrary order and MRCC methods)
  Frank Weinhold                                : gennbo (NPA and NBO analysis)           
  Simon Mueller                                 : openCOSMO-RS                            
  Christopher J. Cramer and Donald G. Truhlar   : smd solvation model                     
  S Lehtola, MJT Oliveira, MAL Marques          : LibXC Library                           
  Liviu Ungur et al                             : ANISO software                          


 Your calculation uses the libint2 library for the computation of 2-el integrals
 For citations please refer to: http://libint.valeyev.net

 Your ORCA version has been built with support for libXC version: 7.0.0
 For citations please refer to: https://libxc.gitlab.io

 This ORCA versions uses:
   CBLAS   interface :  Fast vector & matrix operations
   LAPACKE interface :  Fast linear algebra routines
   SCALAPACK package :  Parallel linear algebra routines
   Shared memory     :  Shared parallel matrices
   BLAS/LAPACK       :  OpenBLAS 0.3.29  USE64BITINT DYNAMIC_ARCH NO_AFFINITY Haswell SINGLE_THREADED
        Core in use  :  Haswell
   Copyright (c) 2011-2014, The OpenBLAS Project


  ***********************************
  * Starting time: Wed Dec 31 11:51:11 2025
  * Host name:     BOOK-611GI2U5BQ
  * Process ID:    203788
  * Working dir.:  /home/a_limbo/IR_lab/TFTFE/B3LYP_cc_pVDZ
  ***********************************

Warning: RI is on but no J-basis has been assigned. Assigning Def2/J (nothing to worry about!)
================================================================================

----- Orbital basis set information -----
Your calculation utilizes the basis: cc-pVDZ 
       H, B-Ne : Obtained from the ccRepo (grant-hill.group.shef.ac.uk/ccrepo) Feb. 2017
                 T. H. Dunning, Jr., J. Chem. Phys. 90, 1007 (1989)
            He : Obtained from the ccRepo (grant-hill.group.shef.ac.uk/ccrepo) Feb. 2017
                 D. E. Woon, T. H. Dunning, Jr., J. Chem. Phys. 100, 2975 (1994)
  Li-Be, Na-Mg : Obtained from the ccRepo (grant-hill.group.shef.ac.uk/ccrepo) Feb. 2017
                 B. P. Prascher, D. E. Woon, K. A. Peterson, T. H. Dunning, Jr., A. K. Wilson, Theor. Chem. Acc. 128, 69 (2011)
         Al-Ar : Obtained from the ccRepo (grant-hill.group.shef.ac.uk/ccrepo) Feb. 2017
                 D. E. Woon, T. H. Dunning, Jr., J. Chem. Phys. 98, 1358 (1993)
            Ca : Obtained from the Peterson Research Group Website (tyr0.chem.wsu.edu/~kipeters) Feb. 2017
                 J. Koput, K. A. Peterson, J. Phys. Chem. 106, 9595 (2002)
         Sc-Zn : Obtained from the ccRepo (grant-hill.group.shef.ac.uk/ccrepo) Feb. 2017
                 N. B. Balabanov, K. A. Peterson, J. Chem. Phys. 123, 064107 (2005)
                 N. B. Balabanov, K. A. Peterson, J. Chem. Phys. 125, 074110 (2006)
         Ga-Kr : Obtained from the ccRepo (grant-hill.group.shef.ac.uk/ccrepo) Feb. 2017
                 A. K. Wilson, D. E. Woon, K. A. Peterson, T. H. Dunning, Jr., J. Chem. Phys. 110, 7667 (1999)

----- AuxJ basis set information -----
Your calculation utilizes the auxiliary basis: def2/J
   H-Rn: F. Weigend, Phys. Chem. Chem. Phys. 8, 1057 (2006).
   Fr-Lr: K. Eichkorn, F. Weigend, O. Treutler, R. Ahlrichs; Theor. Chem. Acc. 97, 119 (1997).

================================================================================
                                        WARNINGS
                       Please study these warnings very carefully!
================================================================================


WARNING: Geometry Optimization
  ===> : Switching off AutoStart
         For restart on a previous wavefunction, please use MOREAD

================================================================================
                                       INPUT FILE
================================================================================
NAME = TFTFE_C3.inp
|  1> # avogadro generated ORCA input file 
|  2> # Basic Mode
|  3> # 
|  4> ! B3LYP cc-pVDZ OPT FREQ
|  5> 
|  6> * xyz 0 1
|  7>    C       -2.87203        1.21046        0.23369
|  8>    F       -3.85940        1.57630       -0.61758
|  9>    F       -3.21375        1.65190        1.46288
| 10>    F       -2.84330       -0.13980        0.26343
| 11>    C       -1.53723        1.78451       -0.22724
| 12>    O       -0.50013        1.57705        0.73764
| 13>    H       -1.65571        2.86254       -0.38397
| 14>    H       -1.26132        1.31673       -1.17906
| 15>    C        0.79018        1.92912        0.24706
| 16>    F        0.65733        2.79426       -0.79528
| 17>    F        1.40692        2.63301        1.23236
| 18>    C        1.64804        0.72839       -0.16464
| 19>    H        2.63253        1.04651       -0.51770
| 20>    F        1.81940       -0.13886        0.86793
| 21>    F        1.04163        0.02288       -1.15950
| 22> *
| 23> 
| 24> 
| 25>                          ****END OF INPUT****
================================================================================

                       *****************************
                       * Geometry Optimization Run *
                       *****************************

Geometry optimization settings:
Update method            Update   .... BFGS
Choice of coordinates    CoordSys .... (2022) Redundant Internals
Initial Hessian          InHess   .... Almloef's Model
Max. no of cycles        MaxIter  .... 50

Convergence Tolerances:
Energy Change            TolE     ....  5.0000e-06 Eh
Max. Gradient            TolMAXG  ....  3.0000e-04 Eh/bohr
RMS Gradient             TolRMSG  ....  1.0000e-04 Eh/bohr
Max. Displacement        TolMAXD  ....  4.0000e-03 bohr
RMS Displacement         TolRMSD  ....  2.0000e-03 bohr
Strict Convergence                .... False

------------------------------------------------------------------------------
                        ORCA OPTIMIZATION COORDINATE SETUP
------------------------------------------------------------------------------

The optimization will be done in redundant internal coordinates (2022)
Making redundant internal coordinates   ...  (2022 redundants) done
Evaluating the initial hessian          ...  (Almloef) done
Evaluating the coordinates              ...  done
Calculating the B-matrix                .... done
Calculating the G-matrix                .... done
The number of degrees of freedom        ....   57

    -----------------------------------------------------------------
                    Redundant Internal Coordinates


    -----------------------------------------------------------------
         Definition                    Initial Value    Approx d2E/dq
    -----------------------------------------------------------------
      1. B(F   1,C   0)                  1.3540         0.593408   
      2. B(F   2,C   0)                  1.3500         0.602219   
      3. B(F   3,C   0)                  1.3509         0.600288   
      4. B(C   4,C   0)                  1.5244         0.381392   
      5. B(O   5,C   4)                  1.4316         0.480211   
      6. B(H   6,C   4)                  1.0958         0.352525   
      7. B(H   7,C   4)                  1.0959         0.352433   
      8. B(C   8,O   5)                  1.4246         0.492780   
      9. B(F   9,C   8)                  1.3611         0.578199   
     10. B(F  10,C   8)                  1.3589         0.582859   
     11. B(C  11,C   8)                  1.5320         0.370774   
     12. B(H  12,C  11)                  1.0932         0.355900   
     13. B(F  13,C  11)                  1.3593         0.582039   
     14. B(F  14,C  11)                  1.3621         0.576147   
     15. A(F   2,C   0,F   3)          108.1903         0.419998   
     16. A(F   1,C   0,F   3)          107.4221         0.418895   
     17. A(F   3,C   0,C   4)          111.3732         0.391652   
     18. A(F   2,C   0,C   4)          111.9514         0.391872   
     19. A(F   1,C   0,F   2)          107.4274         0.419135   
     20. A(F   1,C   0,C   4)          110.2843         0.390864   
     21. A(C   0,C   4,O   5)          112.0840         0.378360   
     22. A(H   6,C   4,H   7)          108.8406         0.288894   
     23. A(O   5,C   4,H   7)          109.9460         0.334831   
     24. A(C   0,C   4,H   7)          108.8050         0.324276   
     25. A(O   5,C   4,H   6)          108.4988         0.334845   
     26. A(C   0,C   4,H   6)          108.6056         0.324289   
     27. A(C   4,O   5,C   8)          112.8437         0.393114   
     28. A(O   5,C   8,F  10)          106.8214         0.404970   
     29. A(O   5,C   8,F   9)          109.4141         0.404397   
     30. A(F  10,C   8,C  11)          110.2842         0.387725   
     31. A(F   9,C   8,C  11)          110.3053         0.387183   
     32. A(O   5,C   8,C  11)          113.9541         0.378202   
     33. A(F   9,C   8,F  10)          105.6833         0.414782   
     34. A(F  13,C  11,F  14)          106.2898         0.414417   
     35. A(H  12,C  11,F  14)          108.4079         0.344311   
     36. A(C   8,C  11,F  14)          110.6672         0.386943   
     37. A(H  12,C  11,F  13)          108.5098         0.344900   
     38. A(C   8,C  11,F  13)          111.4996         0.387630   
     39. A(C   8,C  11,H  12)          111.2835         0.323295   
     40. D(O   5,C   4,C   0,F   3)    -68.7961         0.011589   
     41. D(O   5,C   4,C   0,F   1)    172.0326         0.011589   
     42. D(H   6,C   4,C   0,F   2)    -67.3794         0.011589   
     43. D(H   6,C   4,C   0,F   3)    171.3444         0.011589   
     44. D(O   5,C   4,C   0,F   2)     52.4801         0.011589   
     45. D(H   6,C   4,C   0,F   1)     52.1730         0.011589   
     46. D(C   8,O   5,C   4,C   0)    171.3897         0.018192   
     47. D(C   8,O   5,C   4,H   7)     50.2377         0.018192   
     48. D(C   8,O   5,C   4,H   6)    -68.6884         0.018192   
     49. D(C  11,C   8,O   5,C   4)   -102.3737         0.019181   
     50. D(F  10,C   8,O   5,C   4)    135.5789         0.019181   
     51. D(F   9,C   8,O   5,C   4)     21.6265         0.019181   
     52. D(H  12,C  11,C   8,F  10)    -58.9256         0.010987   
     53. D(H  12,C  11,C   8,F   9)     57.4366         0.010987   
     54. D(H  12,C  11,C   8,O   5)   -179.0448         0.010987   
     55. D(F  13,C  11,C   8,F  10)     62.3816         0.010987   
     56. D(F  13,C  11,C   8,F   9)    178.7439         0.010987   
     57. D(F  13,C  11,C   8,O   5)    -57.7375         0.010987   
    -----------------------------------------------------------------

Number of atoms                         .... 15
Number of degrees of freedom            .... 57


         *************************************************************
         *                GEOMETRY OPTIMIZATION CYCLE   1            *
         *************************************************************
---------------------------------
CARTESIAN COORDINATES (ANGSTROEM)
---------------------------------
  C     -2.872030    1.210460    0.233690
  F     -3.859400    1.576300   -0.617580
  F     -3.213750    1.651900    1.462880
  F     -2.843300   -0.139800    0.263430
  C     -1.537230    1.784510   -0.227240
  O     -0.500130    1.577050    0.737640
  H     -1.655710    2.862540   -0.383970
  H     -1.261320    1.316730   -1.179060
  C      0.790180    1.929120    0.247060
  F      0.657330    2.794260   -0.795280
  F      1.406920    2.633010    1.232360
  C      1.648040    0.728390   -0.164640
  H      2.632530    1.046510   -0.517700
  F      1.819400   -0.138860    0.867930
  F      1.041630    0.022880   -1.159500

----------------------------
CARTESIAN COORDINATES (A.U.)
----------------------------
  NO LB      ZA    FRAG     MASS         X           Y           Z
   0 C     6.0000    0    12.011   -5.427350    2.287438    0.441610
   1 F     9.0000    0    18.998   -7.293209    2.978775   -1.167057
   2 F     9.0000    0    18.998   -6.073107    3.121639    2.764443
   3 F     9.0000    0    18.998   -5.373058   -0.264184    0.497811
   4 C     6.0000    0    12.011   -2.904944    3.372235   -0.429421
   5 O     8.0000    0    15.999   -0.945109    2.980193    1.393938
   6 H     1.0000    0     1.008   -3.128838    5.409417   -0.725598
   7 H     1.0000    0     1.008   -2.383549    2.488259   -2.228100
   8 C     6.0000    0    12.011    1.493224    3.645508    0.466876
   9 F     9.0000    0    18.998    1.242174    5.280386   -1.502861
  10 F     9.0000    0    18.998    2.658693    4.975668    2.328823
  11 C     6.0000    0    12.011    3.114344    1.376458   -0.311125
  12 H     1.0000    0     1.008    4.974761    1.977617   -0.978311
  13 F     9.0000    0    18.998    3.438168   -0.262407    1.640150
  14 F     9.0000    0    18.998    1.968395    0.043237   -2.191137

--------------------------------
INTERNAL COORDINATES (ANGSTROEM)
--------------------------------
 C      0   0   0     0.000000000000     0.00000000     0.00000000
 F      1   0   0     1.354030662651     0.00000000     0.00000000
 F      1   2   0     1.350018476948   107.42744779     0.00000000
 F      1   2   3     1.350893018747   107.42207317   116.19513108
 C      1   2   3     1.524362459325   110.28426477   237.74224814
 O      5   1   2     1.431645722936   112.08398077   172.03258784
 H      5   1   2     1.095787609074   108.60561427    52.17303971
 H      5   1   2     1.095858462074   108.80499212   293.83998369
 C      6   5   1     1.424612900896   112.84374623   171.38969233
 F      9   6   5     1.361098459958   109.41410148    21.62649306
 F      9   6   5     1.358913334139   106.82139017   135.57893220
 C      9   6   5     1.532048694559   113.95409816   257.62632934
 H     12   9   6     1.093193605040   111.28350053   180.95521506
 F     12   9   6     1.359296736184   111.49955310   302.26247830
 F     12   9   6     1.362066029163   110.66718381    60.34819005

---------------------------
INTERNAL COORDINATES (A.U.)
---------------------------
 C      0   0   0     0.000000000000     0.00000000     0.00000000
 F      1   0   0     2.558747129343     0.00000000     0.00000000
 F      1   2   0     2.551165197165   107.42744779     0.00000000
 F      1   2   3     2.552817841658   107.42207317   116.19513108
 C      1   2   3     2.880627576955   110.28426477   237.74224814
 O      5   1   2     2.705418337148   112.08398077   172.03258784
 H      5   1   2     2.070738482094   108.60561427    52.17303971
 H      5   1   2     2.070872374861   108.80499212   293.83998369
 C      6   5   1     2.692128229545   112.84374623   171.38969233
 F      9   6   5     2.572103330623   109.41410148    21.62649306
 F      9   6   5     2.567974041256   106.82139017   135.57893220
 C      9   6   5     2.895152456548   113.95409816   257.62632934
 H     12   9   6     2.065836524879   111.28350053   180.95521506
 F     12   9   6     2.568698566120   111.49955310   302.26247830
 F     12   9   6     2.573931771436   110.66718381    60.34819005

---------------------
BASIS SET INFORMATION
---------------------
There are 4 groups of distinct atoms

 Group   1 Type C   : 17s4p1d contracted to 3s2p1d pattern {881/31/1}
 Group   2 Type F   : 17s4p1d contracted to 3s2p1d pattern {881/31/1}
 Group   3 Type O   : 17s4p1d contracted to 3s2p1d pattern {881/31/1}
 Group   4 Type H   : 4s1p contracted to 2s1p pattern {31/1}

Atom   0C    basis set group =>   1
Atom   1F    basis set group =>   2
Atom   2F    basis set group =>   2
Atom   3F    basis set group =>   2
Atom   4C    basis set group =>   1
Atom   5O    basis set group =>   3
Atom   6H    basis set group =>   4
Atom   7H    basis set group =>   4
Atom   8C    basis set group =>   1
Atom   9F    basis set group =>   2
Atom  10F    basis set group =>   2
Atom  11C    basis set group =>   1
Atom  12H    basis set group =>   4
Atom  13F    basis set group =>   2
Atom  14F    basis set group =>   2
---------------------------------
AUXILIARY/J BASIS SET INFORMATION
---------------------------------
There are 4 groups of distinct atoms

 Group   1 Type C   : 12s5p4d2f1g contracted to 6s4p3d1f1g pattern {711111/2111/211/2/1}
 Group   2 Type F   : 12s5p4d2f1g contracted to 6s4p3d1f1g pattern {711111/2111/211/2/1}
 Group   3 Type O   : 12s5p4d2f1g contracted to 6s4p3d1f1g pattern {711111/2111/211/2/1}
 Group   4 Type H   : 5s2p1d contracted to 3s1p1d pattern {311/2/1}

Atom   0C    basis set group =>   1
Atom   1F    basis set group =>   2
Atom   2F    basis set group =>   2
Atom   3F    basis set group =>   2
Atom   4C    basis set group =>   1
Atom   5O    basis set group =>   3
Atom   6H    basis set group =>   4
Atom   7H    basis set group =>   4
Atom   8C    basis set group =>   1
Atom   9F    basis set group =>   2
Atom  10F    basis set group =>   2
Atom  11C    basis set group =>   1
Atom  12H    basis set group =>   4
Atom  13F    basis set group =>   2
Atom  14F    basis set group =>   2
------------------------------------------------------------------------------
                             ORCA STARTUP CALCULATIONS
                           -- RI-GTO INTEGRALS CHOSEN --
------------------------------------------------------------------------------
------------------------------------------------------------------------------
                   ___                                                        
                  /   \      - P O W E R E D   B Y -                         
                 /     \                                                     
                 |  |  |   _    _      __       _____    __    __             
                 |  |  |  | |  | |    /  \     |  _  \  |  |  /  |          
                  \  \/   | |  | |   /    \    | | | |  |  | /  /          
                 / \  \   | |__| |  /  /\  \   | |_| |  |  |/  /          
                |  |  |   |  __  | /  /__\  \  |    /   |      \           
                |  |  |   | |  | | |   __   |  |    \   |  |\   \          
                \     /   | |  | | |  |  |  |  | |\  \  |  | \   \       
                 \___/    |_|  |_| |__|  |__|  |_| \__\ |__|  \__/        
                                                                              
                      - O R C A' S   B I G   F R I E N D -                    
                                      &                                       
                       - I N T E G R A L  F E E D E R -                       
                                                                              
 v1 FN, 2020, v2 2021, v3 2022-2024                                           
------------------------------------------------------------------------------


----------------------
SHARK INTEGRAL PACKAGE
----------------------

Number of atoms                             ...     15
Number of basis functions                   ...    255
Number of shells                            ...    153
Maximum angular momentum                    ...      2
Integral batch strategy                     ... SHARK/LIBINT Hybrid
RI-J (if used) integral strategy            ... SPLIT-RIJ (Revised 2003 algorithm where possible)
Printlevel                                  ...      1
Contraction scheme used                     ... PARTIAL GENERAL contraction
Prescreening option                         ... SCHWARTZ
   Thresh                                   ... 2.500e-11
   Tcut                                     ... 2.500e-12
   Tpresel                                  ... 2.500e-12 
Coulomb Range Separation                    ... NOT USED
Exchange Range Separation                   ... NOT USED
Multipole approximations                    ... NOT USED
Finite Nucleus Model                        ... NOT USED
CABS basis                                  ... NOT available
Auxiliary Coulomb fitting basis             ... AVAILABLE
   # of basis functions in Aux-J            ...    621
   # of shells in Aux-J                     ...    195
   Maximum angular momentum in Aux-J        ...      4
Auxiliary J/K fitting basis                 ... NOT available
Auxiliary Correlation fitting basis         ... NOT available
Auxiliary 'external' fitting basis          ... NOT available

Checking pre-screening integrals            ... done (  0.0 sec) Dimension = 153
Save PGC pre-screening integrals            ... done (  0.0 sec) Dimension = 153
Calculate PGC overlap integrals             ... done (  0.0 sec) Dimension = 81
Calculating pre-screening integrals (ORCA)  ... done (  0.1 sec) Dimension = 81
Shell pair information
Shell pair cut-off parameter TPreSel        ...   2.5e-12
Total number of shell pairs                 ...     11781
Shell pairs after pre-screening             ...      6332
Total number of primitive shell pairs       ...     16881
Primitive shell pairs kept                  ...      8380
          la=0 lb=0:   2596 shell pairs
          la=1 lb=0:   2261 shell pairs
          la=1 lb=1:    349 shell pairs
          la=2 lb=0:    786 shell pairs
          la=2 lb=1:    279 shell pairs
          la=2 lb=2:     61 shell pairs

Checking whether 4 symmetric matrices of dimension 255 fit in memory
:Max Core in MB      =   4096.00
 MB in use           =     10.08
 MB left             =   4085.92
 MB needed           =      1.00
 Data fit in memory  = YES
Calculating RI/J V-Matrix + Cholesky decomp.... done (  0.0 sec)
Calculating Nuclear repulsion               ... done (  0.0 sec) ENN=    844.134696733197 Eh

Diagonalization of the overlap matrix:
Smallest eigenvalue                        ... 3.206e-03
Time for diagonalization                   ...    0.007 sec
Threshold for overlap eigenvalues          ... 1.000e-07
Number of eigenvalues below threshold      ... 0
Time for construction of square roots      ...    0.002 sec
Total time needed                          ...    0.010 sec

-------------------
DFT GRID GENERATION
-------------------

General Integration Accuracy     IntAcc      ... 4.388
Radial Grid Type                 RadialGrid  ... OptM3 with GC (2021)
Angular Grid (max. ang.)         AngularGrid ... 4 (Lebedev-302)
Angular grid pruning method      GridPruning ... 4 (adaptive)
Weight generation scheme         WeightScheme... mBecke (2022)
Basis function cutoff            BFCut       ... 1.0000e-11
Integration weight cutoff        WCut        ... 1.0000e-14
Partially contracted basis set               ... off
Rotationally invariant grid construction     ... off
Angular grids for H and He will be reduced by one unit

Total number of grid points                  ...    82606
Total number of batches                      ...     1297
Average number of points per batch           ...       63
Average number of grid points per atom       ...     5507

---------------------
SHARK GRID GENERATION
---------------------

General Integration Accuracy     IntAcc      ... 4.388
Radial Grid Type                 RadialGrid  ... OptM3 with GC (2021)
Angular Grid (max. ang.)         AngularGrid ... 4 (Lebedev-302)
Angular grid pruning method      GridPruning ... 4 (adaptive)
Weight generation scheme         WeightScheme... mBecke (2022)
Basis function cutoff            BFCut       ... 1.0000e-11
Integration weight cutoff        WCut        ... 1.0000e-14
Partially contracted basis set               ... off
Rotationally invariant grid construction     ... off
Angular grids for H and He will be reduced by one unit
Steep s-basis detected: some atoms will have their radial
                        grid points doubled.

Total number of grid points                  ...   156526
Total number of batches                      ...     2453
Average number of points per batch           ...       63
Average number of grid points per atom       ...    10435

--------------------
COSX GRID GENERATION
--------------------

GRIDX 1
-------
General Integration Accuracy     IntAcc      ... 3.816
Radial Grid Type                 RadialGrid  ... OptM3 with GC (2021)
Angular Grid (max. ang.)         AngularGrid ... 1 (Lebedev-50)
Angular grid pruning method      GridPruning ... 4 (adaptive)
Weight generation scheme         WeightScheme... mBecke (2022)
Basis function cutoff            BFCut       ... 1.0000e-11
Integration weight cutoff        WCut        ... 1.0000e-14
Partially contracted basis set               ... on
Rotationally invariant grid construction     ... off
Angular grids for H and He will be reduced by one unit

Total number of grid points                  ...    10415
Total number of batches                      ...       89
Average number of points per batch           ...      117
Average number of grid points per atom       ...      694
UseSFitting                                  ... on

GRIDX 2
-------
General Integration Accuracy     IntAcc      ... 4.020
Radial Grid Type                 RadialGrid  ... OptM3 with GC (2021)
Angular Grid (max. ang.)         AngularGrid ... 2 (Lebedev-110)
Angular grid pruning method      GridPruning ... 4 (adaptive)
Weight generation scheme         WeightScheme... mBecke (2022)
Basis function cutoff            BFCut       ... 1.0000e-11
Integration weight cutoff        WCut        ... 1.0000e-14
Partially contracted basis set               ... on
Rotationally invariant grid construction     ... off
Angular grids for H and He will be reduced by one unit

Total number of grid points                  ...    24170
Total number of batches                      ...      197
Average number of points per batch           ...      122
Average number of grid points per atom       ...     1611
UseSFitting                                  ... on

GRIDX 3
-------
General Integration Accuracy     IntAcc      ... 4.338
Radial Grid Type                 RadialGrid  ... OptM3 with GC (2021)
Angular Grid (max. ang.)         AngularGrid ... 3 (Lebedev-194)
Angular grid pruning method      GridPruning ... 4 (adaptive)
Weight generation scheme         WeightScheme... mBecke (2022)
Basis function cutoff            BFCut       ... 1.0000e-11
Integration weight cutoff        WCut        ... 1.0000e-14
Partially contracted basis set               ... on
Rotationally invariant grid construction     ... off
Angular grids for H and He will be reduced by one unit

Total number of grid points                  ...    53568
Total number of batches                      ...      426
Average number of points per batch           ...      125
Average number of grid points per atom       ...     3571
UseSFitting                                  ... on
Grids setup in   5.1 sec
Initializing property integral containers    ... done (  0.0 sec)

SHARK setup successfully completed in   5.4 seconds

Maximum memory used throughout the entire STARTUP-calculation: 59.3 MB
-------------------------------------------------------------------------------
                                 ORCA GUESS
                   Start orbitals & Density for SCF / CASSCF
-------------------------------------------------------------------------------

------------
SCF SETTINGS
------------
Hamiltonian:
 Density Functional     Method          .... DFT(GTOs)
 Exchange Functional    Exchange        .... B88
   X-Alpha parameter    XAlpha          ....  0.666667
   Becke's b parameter  XBeta           ....  0.004200
 Correlation Functional Correlation     .... LYP
 LDA part of GGA corr.  LDAOpt          .... VWN-5
 Gradients option       PostSCFGGA      .... off
 Hybrid DFT is turned on
   Fraction HF Exchange ScalHFX         ....  0.200000
   Scaling of DF-GGA-X  ScalDFX         ....  0.720000
   Scaling of DF-GGA-C  ScalDFC         ....  0.810000
   Scaling of DF-LDA-C  ScalLDAC        ....  1.000000
   Perturbative correction              ....  0.000000
   NL short-range parameter             ....  4.800000
 RI-approximation to the Coulomb term is turned on
   Number of AuxJ basis functions       .... 621
   RIJ-COSX (HFX calculated with COS-X)).... on


General Settings:
 Integral files         IntName         .... TFTFE_C3
 Hartree-Fock type      HFTyp           .... RHF
 Total Charge           Charge          ....    0
 Multiplicity           Mult            ....    1
 Number of Electrons    NEL             ....   98
 Basis Dimension        Dim             ....  183
 Nuclear Repulsion      ENuc            ....    844.1346967332 Eh

Convergence Acceleration:
 AO-DIIS                CNVDIIS         .... on
   Start iteration      DIISMaxIt       ....    12
   Startup error        DIISStart       ....  0.200000
   # of expansion vecs  DIISMaxEq       ....     5
   Bias factor          DIISBfac        ....   1.050
   Max. coefficient     DIISMaxC        ....  10.000
 MO-DIIS                CNVKDIIS        .... off
 Trust-Rad. Augm. Hess. CNVTRAH         .... auto
   Auto Start mean grad. ratio tolernc. ....  1.125000
   Auto Start start iteration           ....    50
   Auto Start num. interpolation iter.  ....    10
   Max. Number of Micro iterations      ....    24
   Max. Number of Macro iterations      .... Maxiter - #DIIS iter
   Number of Davidson start vectors     ....     2
   Converg. threshold    (grad. norm)   ....   1.000e-05
   Grad. Scal. Fac. for Micro threshold ....   0.100
   Minimum threshold for Micro iter.    ....   1.000e-02
   NR start threshold (gradient norm)   ....   1.000e-04
   Initial trust radius                 ....   0.400
   Minimum AH scaling param. (alpha)    ....   1.000
   Maximum AH scaling param. (alpha)    .... 1000.000
   Quad. conv. algorithm                .... NR
   White noise on init. David. guess    .... on
   Maximum white noise                  ....   0.010
   Pseudo random numbers                .... off
   Inactive MOs                         .... canonical
   Orbital update algorithm             .... Taylor
   Preconditioner                       .... Diag
   Full preconditioner red. dimension   ....   250
 SOSCF                 CNVSOSCF           .... on
   Start iteration     SOSCFMaxIt         ....   150
   Startup grad/error  SOSCFStart         ....  0.003300
   Hessian update      SOSCFHessUp        .... L-BFGS
   Autom. constraints  SOSCFAutoConstrain .... off
 Level Shifting         CNVShift        .... on
   Level shift para.    LevelShift      ....    0.2500
   Turn off err/grad.   ShiftErr        ....    0.0010
 Zerner damping         CNVZerner       .... off
 Static damping         CNVDamp         .... on
   Fraction old density DampFac         ....    0.7000
   Max. Damping (<1)    DampMax         ....    0.9800
   Min. Damping (>=0)   DampMin         ....    0.0000
   Turn off err/grad.   DampErr         ....    0.1000

SCF Procedure:
 Maximum # iterations   MaxIter         ....   125
 SCF integral mode      SCFMode         .... Direct
   Integral package                     .... SHARK and LIBINT hybrid scheme
 Reset frequency        DirectResetFreq ....    20
 Integral Threshold     Thresh          ....  2.500e-11 Eh
 Primitive CutOff       TCut            ....  2.500e-12 Eh

Convergence Tolerance:
 Convergence Check Mode ConvCheckMode   .... Total+1el-Energy
 Convergence forced     ConvForced      .... 0
 Energy Change          TolE            ....  1.000e-08 Eh
 1-El. energy change                    ....  1.000e-05 Eh
 Orbital Gradient       TolG            ....  1.000e-05
 Orbital Rotation angle TolX            ....  1.000e-05
 DIIS Error             TolErr          ....  5.000e-07

------------------------------
INITIAL GUESS: MODEL POTENTIAL
------------------------------
Loading Hartree-Fock densities                     ... done
Calculating cut-offs                               ... done
Initializing the effective Hamiltonian             ... done
Setting up the integral package (SHARK)            ... done
Starting the Coulomb interaction                   ... done (   0.2 sec)
Making the grid                                    ... done (   0.2 sec)
Mapping shells                                     ... done
Starting the XC term evaluation                    ... done (   0.2 sec)
  promolecular density results
     # of electrons  =     97.999328270
     EX              =   -100.044189214
     EC              =     -3.640173699
     EX+EC           =   -103.684362913
Transforming the Hamiltonian                       ... done (   0.0 sec)
Diagonalizing the Hamiltonian                      ... done (   0.0 sec)
Back transforming the eigenvectors                 ... done (   0.0 sec)
Now organizing SCF variables                       ... done
                      ------------------
                      INITIAL GUESS DONE (   0.7 sec)
                      ------------------
             **** ENERGY FILE WAS UPDATED (TFTFE_C3.en.tmp) ****
Finished Guess after   0.8 sec
Maximum memory used throughout the entire GUESS-calculation: 15.9 MB

-------------------------------------------------------------------------------------------
                                      ORCA LEAN-SCF
                              memory conserving SCF solver
-------------------------------------------------------------------------------------------

----------------------------------------D-I-I-S--------------------------------------------
Iteration    Energy (Eh)           Delta-E    RMSDP     MaxDP     DIISErr   Damp  Time(sec)
-------------------------------------------------------------------------------------------
               ***  Starting incremental Fock matrix formation  ***
    1    -927.7924742783208103     0.00e+00  2.48e-03  6.15e-02  1.92e-01  0.700   5.5
    2    -927.8982563430234904    -1.06e-01  1.37e-03  3.26e-02  7.69e-02  0.700   2.6
                               ***Turning on AO-DIIS***
    3    -927.9334099307424140    -3.52e-02  3.84e-04  8.84e-03  2.12e-02  0.700   2.8
    4    -927.9568642876648710    -2.35e-02  6.24e-04  1.44e-02  1.29e-02  0.000   2.5
                              *** Initializing SOSCF ***
---------------------------------------S-O-S-C-F--------------------------------------
Iteration    Energy (Eh)           Delta-E    RMSDP     MaxDP     MaxGrad    Time(sec)
--------------------------------------------------------------------------------------
    5    -928.0107839856608507    -5.39e-02  1.34e-04  3.83e-03  2.80e-03     2.3
               *** Restarting incremental Fock matrix formation ***
    6    -928.0108035696947582    -1.96e-05  5.04e-05  8.90e-04  2.81e-04     5.4
    7    -928.0108045451869430    -9.75e-07  2.33e-05  4.80e-04  2.92e-04     3.8
    8    -928.0108084411969003    -3.90e-06  8.06e-06  1.68e-04  5.81e-05     3.4
    9    -928.0108085206176156    -7.94e-08  2.90e-06  5.85e-05  2.72e-05     3.4
   10    -928.0108085733201051    -5.27e-08  1.62e-06  2.73e-05  1.24e-05     2.8
   11    -928.0108085679640908     5.36e-09  7.07e-07  1.67e-05  9.34e-06     2.8
                 **** Energy Check signals convergence ****

               *****************************************************
               *                     SUCCESS                       *
               *           SCF CONVERGED AFTER  11 CYCLES          *
               *****************************************************

Recomputing exchange energy using gridx3       ... done (    8.553 sec)
Old exchange energy                            :    -20.101821536 Eh
New exchange energy                            :    -20.101859238 Eh
Exchange energy change after final integration :     -0.000037702 Eh
Total energy after final integration           :   -928.010846268 Eh
             **** ENERGY FILE WAS UPDATED (TFTFE_C3.en.tmp) ****

----------------
TOTAL SCF ENERGY
----------------

Total Energy       :       -928.01084626770717 Eh          -25252.45894 eV

Components:
Nuclear Repulsion  :        844.13469673319730 Eh           22970.07287 eV
Electronic Energy  :      -1772.14550529868484 Eh          -48222.53079 eV
One Electron Energy:      -2966.54656138169776 Eh          -80723.83586 eV
Two Electron Energy:       1194.40105608301292 Eh           32501.30507 eV

Virial components:
Potential Energy   :      -1851.75185153821894 Eh          -50388.72959 eV
Kinetic Energy     :        923.74100527051189 Eh           25136.27066 eV
Virial Ratio       :          2.00462233566858

DFT components:
N(Alpha)           :       49.000013027582 electrons
N(Beta)            :       49.000013027582 electrons
N(Total)           :       98.000026055165 electrons
E(X)               :      -80.039806652525 Eh       
E(C)               :       -4.258200068209 Eh       
E(XC)              :      -84.298006720735 Eh       

---------------
SCF CONVERGENCE
---------------

  Last Energy change         ...   -5.3560e-09  Tolerance :   1.0000e-08
  Last MAX-Density change    ...    1.6718e-05  Tolerance :   1.0000e-07
  Last RMS-Density change    ...    7.0728e-07  Tolerance :   5.0000e-09
  Last DIIS Error            ...    2.8010e-03  Tolerance :   5.0000e-07
  Last Orbital Gradient      ...    9.3357e-06  Tolerance :   1.0000e-05
  Last Orbital Rotation      ...    5.1117e-06  Tolerance :   1.0000e-05


----------------
ORBITAL ENERGIES
----------------

  NO   OCC          E(Eh)            E(eV) 
   0   2.0000     -24.751099      -673.5117 
   1   2.0000     -24.739838      -673.2052 
   2   2.0000     -24.735683      -673.0921 
   3   2.0000     -24.735019      -673.0741 
   4   2.0000     -24.730222      -672.9436 
   5   2.0000     -24.729604      -672.9267 
   6   2.0000     -24.729151      -672.9144 
   7   2.0000     -19.201786      -522.5071 
   8   2.0000     -10.439071      -284.0616 
   9   2.0000     -10.432573      -283.8847 
  10   2.0000     -10.379614      -282.4437 
  11   2.0000     -10.280627      -279.7501 
  12   2.0000      -1.314237       -35.7622 
  13   2.0000      -1.307731       -35.5852 
  14   2.0000      -1.280496       -34.8441 
  15   2.0000      -1.238334       -33.6968 
  16   2.0000      -1.228353       -33.4252 
  17   2.0000      -1.226164       -33.3656 
  18   2.0000      -1.220479       -33.2109 
  19   2.0000      -1.085348       -29.5338 
  20   2.0000      -0.813873       -22.1466 
  21   2.0000      -0.772797       -21.0289 
  22   2.0000      -0.688833       -18.7441 
  23   2.0000      -0.663066       -18.0430 
  24   2.0000      -0.613003       -16.6807 
  25   2.0000      -0.606615       -16.5068 
  26   2.0000      -0.603044       -16.4097 
  27   2.0000      -0.593341       -16.1456 
  28   2.0000      -0.584935       -15.9169 
  29   2.0000      -0.566814       -15.4238 
  30   2.0000      -0.559161       -15.2155 
  31   2.0000      -0.550653       -14.9840 
  32   2.0000      -0.492426       -13.3996 
  33   2.0000      -0.478211       -13.0128 
  34   2.0000      -0.470553       -12.8044 
  35   2.0000      -0.464363       -12.6360 
  36   2.0000      -0.461705       -12.5636 
  37   2.0000      -0.458082       -12.4650 
  38   2.0000      -0.445045       -12.1103 
  39   2.0000      -0.433475       -11.7954 
  40   2.0000      -0.429160       -11.6781 
  41   2.0000      -0.422883       -11.5072 
  42   2.0000      -0.420736       -11.4488 
  43   2.0000      -0.416403       -11.3309 
  44   2.0000      -0.408725       -11.1220 
  45   2.0000      -0.407503       -11.0887 
  46   2.0000      -0.387410       -10.5420 
  47   2.0000      -0.365389        -9.9428 
  48   2.0000      -0.320631        -8.7248 
  49   0.0000       0.039904         1.0858 
  50   0.0000       0.043757         1.1907 
  51   0.0000       0.074269         2.0210 
  52   0.0000       0.084835         2.3085 
  53   0.0000       0.093393         2.5414 
  54   0.0000       0.117913         3.2086 
  55   0.0000       0.172578         4.6961 
  56   0.0000       0.186944         5.0870 
  57   0.0000       0.193354         5.2614 
  58   0.0000       0.196743         5.3537 
  59   0.0000       0.208710         5.6793 
*Only the first 10 virtual orbitals were printed.

                    ********************************
                    * MULLIKEN POPULATION ANALYSIS *
                    ********************************

-----------------------
MULLIKEN ATOMIC CHARGES
-----------------------
   0 C :    0.453753
   1 F :   -0.167752
   2 F :   -0.158577
   3 F :   -0.160920
   4 C :    0.127773
   5 O :   -0.311996
   6 H :    0.048847
   7 H :    0.044159
   8 C :    0.371203
   9 F :   -0.174194
  10 F :   -0.154768
  11 C :    0.416936
  12 H :    0.028418
  13 F :   -0.177261
  14 F :   -0.185621
Sum of atomic charges:    0.0000000

--------------------------------
MULLIKEN REDUCED ORBITAL CHARGES
--------------------------------
  0 C s       :     2.900018  s :     2.900018
      pz      :     0.715189  p :     2.349100
      px      :     0.896049
      py      :     0.737863
      dz2     :     0.064907  d :     0.297129
      dxz     :     0.059014
      dyz     :     0.060317
      dx2y2   :     0.061341
      dxy     :     0.051550

  1 F s       :     3.899519  s :     3.899519
      pz      :     1.734859  p :     5.262165
      px      :     1.659333
      py      :     1.867973
      dz2     :     0.000897  d :     0.006068
      dxz     :     0.002380
      dyz     :     0.000715
      dx2y2   :     0.001114
      dxy     :     0.000961

  2 F s       :     3.897318  s :     3.897318
      pz      :     1.536629  p :     5.255068
      px      :     1.869051
      py      :     1.849388
      dz2     :     0.002543  d :     0.006192
      dxz     :     0.001464
      dyz     :     0.001678
      dx2y2   :     0.000254
      dxy     :     0.000253

  3 F s       :     3.897417  s :     3.897417
      pz      :     1.891353  p :     5.257345
      px      :     1.902931
      py      :     1.463061
      dz2     :     0.000936  d :     0.006158
      dxz     :     0.000034
      dyz     :     0.001190
      dx2y2   :     0.002742
      dxy     :     0.001255

  4 C s       :     3.041274  s :     3.041274
      pz      :     0.880471  p :     2.732150
      px      :     0.832916
      py      :     1.018762
      dz2     :     0.019594  d :     0.098803
      dxz     :     0.025691
      dyz     :     0.014223
      dx2y2   :     0.020576
      dxy     :     0.018718

  5 O s       :     3.785925  s :     3.785925
      pz      :     1.559221  p :     4.510732
      px      :     1.142118
      py      :     1.809393
      dz2     :     0.002833  d :     0.015338
      dxz     :     0.005605
      dyz     :     0.002130
      dx2y2   :     0.002353
      dxy     :     0.002417

  6 H s       :     0.923402  s :     0.923402
      pz      :     0.005121  p :     0.027751
      px      :     0.003993
      py      :     0.018637

  7 H s       :     0.927708  s :     0.927708
      pz      :     0.014935  p :     0.028133
      px      :     0.004690
      py      :     0.008508

  8 C s       :     2.980485  s :     2.980485
      pz      :     0.696760  p :     2.377252
      px      :     0.824236
      py      :     0.856256
      dz2     :     0.053304  d :     0.271060
      dxz     :     0.057208
      dyz     :     0.058379
      dx2y2   :     0.046702
      dxy     :     0.055467

  9 F s       :     3.906520  s :     3.906520
      pz      :     1.660601  p :     5.261712
      px      :     1.889939
      py      :     1.711172
      dz2     :     0.001335  d :     0.005962
      dxz     :     0.000723
      dyz     :     0.002556
      dx2y2   :     0.000777
      dxy     :     0.000571

 10 F s       :     3.899084  s :     3.899084
      pz      :     1.670986  p :     5.249664
      px      :     1.813682
      py      :     1.764995
      dz2     :     0.001171  d :     0.006021
      dxz     :     0.001506
      dyz     :     0.001869
      dx2y2   :     0.000601
      dxy     :     0.000874

 11 C s       :     2.984024  s :     2.984024
      pz      :     0.677402  p :     2.399862
      px      :     0.926446
      py      :     0.796014
      dz2     :     0.047337  d :     0.199178
      dxz     :     0.037938
      dyz     :     0.052749
      dx2y2   :     0.026676
      dxy     :     0.034477

 12 H s       :     0.945582  s :     0.945582
      pz      :     0.004341  p :     0.026000
      px      :     0.016910
      py      :     0.004749

 13 F s       :     3.901920  s :     3.901920
      pz      :     1.659016  p :     5.269297
      px      :     1.907509
      py      :     1.702773
      dz2     :     0.001306  d :     0.006044
      dxz     :     0.000807
      dyz     :     0.002539
      dx2y2   :     0.000751
      dxy     :     0.000640

 14 F s       :     3.902376  s :     3.902376
      pz      :     1.682027  p :     5.277355
      px      :     1.825292
      py      :     1.770036
      dz2     :     0.001186  d :     0.005890
      dxz     :     0.001391
      dyz     :     0.001824
      dx2y2   :     0.000601
      dxy     :     0.000888



                     *******************************
                     * LOEWDIN POPULATION ANALYSIS *
                     *******************************

----------------------
LOEWDIN ATOMIC CHARGES
----------------------
   0 C :   -0.152694
   1 F :    0.042235
   2 F :    0.048041
   3 F :    0.045289
   4 C :   -0.032398
   5 O :    0.010244
   6 H :    0.030832
   7 H :    0.027943
   8 C :   -0.132941
   9 F :    0.042404
  10 F :    0.046362
  11 C :   -0.049870
  12 H :    0.019592
  13 F :    0.031483
  14 F :    0.023478

-------------------------------
LOEWDIN REDUCED ORBITAL CHARGES
-------------------------------
  0 C s       :     2.848718  s :     2.848718
      pz      :     0.821492  p :     2.615339
      px      :     0.957118
      py      :     0.836728
      dz2     :     0.153657  d :     0.688637
      dxz     :     0.139244
      dyz     :     0.132360
      dx2y2   :     0.149519
      dxy     :     0.113857

  1 F s       :     3.694435  s :     3.694435
      pz      :     1.735833  p :     5.255054
      px      :     1.668192
      py      :     1.851029
      dz2     :     0.001018  d :     0.008277
      dxz     :     0.003619
      dyz     :     0.000929
      dx2y2   :     0.001519
      dxy     :     0.001192

  2 F s       :     3.692592  s :     3.692592
      pz      :     1.567373  p :     5.250901
      px      :     1.849229
      py      :     1.834299
      dz2     :     0.003679  d :     0.008466
      dxz     :     0.001945
      dyz     :     0.002239
      dx2y2   :     0.000298
      dxy     :     0.000304

  3 F s       :     3.693014  s :     3.693014
      pz      :     1.870606  p :     5.253271
      px      :     1.878054
      py      :     1.504611
      dz2     :     0.001418  d :     0.008427
      dxz     :     0.000035
      dyz     :     0.001226
      dx2y2   :     0.004281
      dxy     :     0.001466

  4 C s       :     2.828695  s :     2.828695
      pz      :     0.954134  p :     2.936693
      px      :     0.909225
      py      :     1.073334
      dz2     :     0.056088  d :     0.267010
      dxz     :     0.067338
      dyz     :     0.038652
      dx2y2   :     0.059837
      dxy     :     0.045095

  5 O s       :     3.426416  s :     3.426416
      pz      :     1.568350  p :     4.536190
      px      :     1.202609
      py      :     1.765231
      dz2     :     0.004281  d :     0.027150
      dxz     :     0.010519
      dyz     :     0.002398
      dx2y2   :     0.005321
      dxy     :     0.004631

  6 H s       :     0.888407  s :     0.888407
      pz      :     0.014604  p :     0.080761
      px      :     0.014048
      py      :     0.052110

  7 H s       :     0.890672  s :     0.890672
      pz      :     0.043569  p :     0.081385
      px      :     0.015628
      py      :     0.022188

  8 C s       :     2.862476  s :     2.862476
      pz      :     0.807914  p :     2.640565
      px      :     0.904171
      py      :     0.928480
      dz2     :     0.119793  d :     0.629900
      dxz     :     0.128368
      dyz     :     0.147523
      dx2y2   :     0.101717
      dxy     :     0.132499

  9 F s       :     3.694908  s :     3.694908
      pz      :     1.673869  p :     5.254429
      px      :     1.865335
      py      :     1.715225
      dz2     :     0.001740  d :     0.008258
      dxz     :     0.000886
      dyz     :     0.003911
      dx2y2   :     0.001071
      dxy     :     0.000650

 10 F s       :     3.695494  s :     3.695494
      pz      :     1.682050  p :     5.249924
      px      :     1.807362
      py      :     1.760512
      dz2     :     0.001388  d :     0.008219
      dxz     :     0.002159
      dyz     :     0.002731
      dx2y2   :     0.000743
      dxy     :     0.001199

 11 C s       :     2.857553  s :     2.857553
      pz      :     0.788164  p :     2.694664
      px      :     1.019608
      py      :     0.886892
      dz2     :     0.109403  d :     0.497653
      dxz     :     0.091476
      dyz     :     0.134340
      dx2y2   :     0.066270
      dxy     :     0.096165

 12 H s       :     0.901940  s :     0.901940
      pz      :     0.013943  p :     0.078469
      px      :     0.049813
      py      :     0.014712

 13 F s       :     3.695838  s :     3.695838
      pz      :     1.671157  p :     5.264466
      px      :     1.888849
      py      :     1.704459
      dz2     :     0.001664  d :     0.008214
      dxz     :     0.001009
      dyz     :     0.003762
      dx2y2   :     0.000984
      dxy     :     0.000794

 14 F s       :     3.696303  s :     3.696303
      pz      :     1.688599  p :     5.272173
      px      :     1.821351
      py      :     1.762223
      dz2     :     0.001443  d :     0.008047
      dxz     :     0.002028
      dyz     :     0.002611
      dx2y2   :     0.000736
      dxy     :     0.001229



                      *****************************
                      * MAYER POPULATION ANALYSIS *
                      *****************************

  NA   - Mulliken gross atomic population
  ZA   - Total nuclear charge
  QA   - Mulliken gross atomic charge
  VA   - Mayer's total valence
  BVA  - Mayer's bonded valence
  FA   - Mayer's free valence

  ATOM       NA         ZA         QA         VA         BVA        FA
  0 C      5.5462     6.0000     0.4538     4.5673     4.5673    -0.0000
  1 F      9.1678     9.0000    -0.1678     1.2319     1.2319    -0.0000
  2 F      9.1586     9.0000    -0.1586     1.2418     1.2418     0.0000
  3 F      9.1609     9.0000    -0.1609     1.2388     1.2388    -0.0000
  4 C      5.8722     6.0000     0.1278     3.9790     3.9790     0.0000
  5 O      8.3120     8.0000    -0.3120     2.1589     2.1589     0.0000
  6 H      0.9512     1.0000     0.0488     0.9856     0.9856    -0.0000
  7 H      0.9558     1.0000     0.0442     1.0010     1.0010    -0.0000
  8 C      5.6288     6.0000     0.3712     4.3795     4.3795     0.0000
  9 F      9.1742     9.0000    -0.1742     1.2106     1.2106    -0.0000
 10 F      9.1548     9.0000    -0.1548     1.2483     1.2483     0.0000
 11 C      5.5831     6.0000     0.4169     4.1972     4.1972     0.0000
 12 H      0.9716     1.0000     0.0284     0.9753     0.9753     0.0000
 13 F      9.1773     9.0000    -0.1773     1.2121     1.2121     0.0000
 14 F      9.1856     9.0000    -0.1856     1.2057     1.2057     0.0000

  Mayer bond orders larger than 0.100000
B(  0-C ,  1-F ) :   1.1434 B(  0-C ,  2-F ) :   1.1749 B(  0-C ,  3-F ) :   1.1704 
B(  0-C ,  4-C ) :   1.0220 B(  4-C ,  5-O ) :   0.9757 B(  4-C ,  6-H ) :   0.9377 
B(  4-C ,  7-H ) :   0.9340 B(  5-O ,  8-C ) :   1.0857 B(  8-C ,  9-F ) :   1.0880 
B(  8-C , 10-F ) :   1.1766 B(  8-C , 11-C ) :   0.9422 B( 11-C , 12-H ) :   0.9302 
B( 11-C , 13-F ) :   1.1436 B( 11-C , 14-F ) :   1.1170 

-------
TIMINGS
-------

Total SCF time: 0 days 0 hours 0 min 48 sec 

Total time                  ....      48.537 sec
Sum of individual times     ....      46.135 sec  ( 95.1%)

SCF preparation             ....       0.123 sec  (  0.3%)
Fock matrix formation       ....      45.879 sec  ( 94.5%)
  Startup                   ....       0.005 sec  (  0.0% of F)
  Split-RI-J                ....       3.771 sec  (  8.2% of F)
  Chain of spheres X        ....      37.452 sec  ( 81.6% of F)
  XC integration            ....       6.902 sec  ( 15.0% of F)
    XC Preparation          ....       0.000 sec  (  0.0% of XC)
    Basis function eval.    ....       2.990 sec  ( 43.3% of XC)
    Density eval.           ....       1.601 sec  ( 23.2% of XC)
    XC-Functional eval.     ....       0.416 sec  (  6.0% of XC)
    XC-Potential eval.      ....       1.599 sec  ( 23.2% of XC)
Diagonalization             ....       0.000 sec  (  0.0%)
Density matrix formation    ....       0.015 sec  (  0.0%)
Total Energy calculation    ....       0.003 sec  (  0.0%)
Population analysis         ....       0.009 sec  (  0.0%)
Orbital Transformation      ....       0.016 sec  (  0.0%)
Orbital Orthonormalization  ....       0.000 sec  (  0.0%)
DIIS solution               ....       0.053 sec  (  0.1%)
SOSCF solution              ....       0.039 sec  (  0.1%)
Finished LeanSCF after  48.5 sec

Maximum memory used throughout the entire LEANSCF-calculation: 26.9 MB

------------------------------------------------------------------------------
                         ORCA PROPERTY INTEGRAL CALCULATIONS
------------------------------------------------------------------------------

GBWName                                   ... TFTFE_C3.gbw
Number of atoms                           ...     15
Number of basis functions                 ...    255
Max core memory                           ...   4096 MB

Dipole integrals                          ... YES
Quadrupole integrals                      ...  NO
Linear momentum integrals                 ...  NO
Angular momentum integrals                ...  NO
Higher moments length integrals           ...  NO
Higher moments velocity integrals         ...  NO
Kinetic energy integrals                  ...  NO
GIAO right hand sides                     ...  NO
GIAO dipole derivative integrals          ...  NO
SOC integrals                             ...  NO
EPR diamagnetic integrals (GIAO)          ...  NO
EPR gauge integrals                       ...  NO
Field gradient integrals                  ...  NO (   0 nuclei)
Spin-dipole/Fermi contact integrals       ...  NO (   0 nuclei)
Contact density integrals                 ...  NO (   0 nuclei)
Nucleus-orbit integrals                   ...  NO (   0 nuclei)
Geometric perturbations                   ...  NO (  15 nuclei)

Choice of electric origin   ... Center of mass
Position of electric origin ... ( -1.1976,  2.4368,  0.3268) 
Choice of magnetic origin   ... GIAO
Position of magnetic origin ... (  0.0000,  0.0000,  0.0000) 

Calculating integrals                     ... Electric Dipole (Length)     done (  0.0 sec)

Property integrals calculated in   0.0 sec

Maximum memory used throughout the entire PROPINT-calculation: 16.0 MB

-------------------------   --------------------
FINAL SINGLE POINT ENERGY      -928.010846267707
-------------------------   --------------------

------------------------------------------------------------------------------
                         ORCA SCF GRADIENT CALCULATION
------------------------------------------------------------------------------

Nuc. rep. gradient        (SHARK) ... done (  0.0 sec)
HCore & Overlap gradient  (SHARK) ... done (  0.2 sec)
Split-RIJ-J gradient      (SHARK) ... done (  1.5 sec)
done ( 25.8 sec)
XC gradient                       ... done (  4.3 sec)

------------------
CARTESIAN GRADIENT
------------------

   1   C   :   -0.004016704    0.004555231   -0.008101186
   2   F   :   -0.006692274   -0.000518666   -0.000361396
   3   F   :   -0.001547410    0.002062341    0.003670129
   4   F   :    0.000758833   -0.003495478   -0.001485739
   5   C   :   -0.000118197   -0.004819564    0.003927360
   6   O   :   -0.021190844    0.001067568    0.009414353
   7   H   :    0.005674297   -0.002029524    0.001929352
   8   H   :    0.003933754    0.002249992    0.003094627
   9   C   :    0.034100610   -0.010351597   -0.022601628
  10   F   :   -0.008447859    0.004995155    0.005917993
  11   F   :   -0.001063097    0.011560553    0.003414786
  12   C   :   -0.004956100    0.015056869   -0.000498984
  13   H   :   -0.005082724   -0.004853230    0.001726840
  14   F   :    0.002701302   -0.008717575   -0.002701188
  15   F   :    0.005946411   -0.006762075    0.002654681

Difference to translation invariance:
           :   -0.0000000002   -0.0000000000    0.0000000001

Difference to rotation invariance:
           :   -0.0006828889   -0.0004111093    0.0003754366

Norm of the Cartesian gradient     ...    0.0580662654
RMS gradient                       ...    0.0086560078
MAX gradient                       ...    0.0341006098

-------
TIMINGS
-------

Total SCF gradient time     ....       31.824 sec

Densities                   ....       0.001 sec  (  0.0%)
One electron gradient       ....       0.230 sec  (  0.7%)
RI-J Coulomb gradient       ....       1.498 sec  (  4.7%)
COSX gradient               ....      25.789 sec  ( 81.0%)
XC gradient                 ....       4.304 sec  ( 13.5%)

Maximum memory used throughout the entire SCFGRAD-calculation: 34.1 MB
------------------------------------------------------------------------------
                         ORCA GEOMETRY RELAXATION STEP
------------------------------------------------------------------------------

Reading the OPT-File                    .... done
Getting information on internals        .... done
Copying old internal coords+grads       .... done
Making the new internal coordinates     .... (2022 redundants) done
Validating the new internal coordinates .... (2022 redundants) done
Calculating the B-matrix                .... done
Calculating the G,G- and P matrices     .... done
Transforming gradient to internals      .... done
Projecting the internal gradient        .... done
Number of atoms                         ....  15
Number of internal coordinates          ....  57
Current Energy                          ....  -928.010846268 Eh
Current gradient norm                   ....     0.058066265 Eh/bohr
Maximum allowed component of the step   ....  0.300
Current trust radius                    ....  0.300
Evaluating the initial hessian          ....  (Almloef) done
Projecting the Hessian                  .... done
Forming the augmented Hessian           .... done
Diagonalizing the augmented Hessian     .... done
Last element of RFO vector              ....  0.975320383
Lowest eigenvalues of augmented Hessian:
 -0.009784701  0.010986992  0.011627234  0.018196056  0.019838519
Length of the computed step             ....  0.226381367
The final length of the internal step   ....  0.226381367
Converting the step to Cartesian space:
 Initial RMS(Int)=    0.0299849446
Transforming coordinates:
 Iter   0:  RMS(Cart)=    0.1187864079 RMS(Int)=    0.0300645664
 Iter   5:  RMS(Cart)=    0.0000004241 RMS(Int)=    0.0000003149
done
Storing new coordinates                 .... done

                                .--------------------.
          ----------------------|Geometry convergence|-------------------------
          Item                value                   Tolerance       Converged
          ---------------------------------------------------------------------
          RMS gradient        0.0077531739            0.0001000000      NO
          MAX gradient        0.0254072350            0.0003000000      NO
          RMS step            0.0299849446            0.0020000000      NO
          MAX step            0.1220590598            0.0040000000      NO
          -------------------------------------------------------------------------
          ........................................................
          Max(Bonds)      0.0268      Max(Angles)    3.36
          Max(Dihed)        6.99      Max(Improp)    0.00
          ---------------------------------------------------------------------

The optimization has not yet converged - more geometry cycles are needed


    ---------------------------------------------------------------------------
                         Redundant Internal Coordinates
                            (Angstroem and degrees)

        Definition                    Value    dE/dq     Step     New-Value
    ----------------------------------------------------------------------------
     1. B(F   1,C   0)                1.3540  0.004966 -0.0044    1.3497   
     2. B(F   2,C   0)                1.3500  0.004411 -0.0038    1.3462   
     3. B(F   3,C   0)                1.3509  0.003474 -0.0030    1.3479   
     4. B(C   4,C   0)                1.5244  0.007187 -0.0097    1.5146   
     5. B(O   5,C   4)                1.4316 -0.000658  0.0007    1.4324   
     6. B(H   6,C   4)                1.0958 -0.002881  0.0042    1.1000   
     7. B(H   7,C   4)                1.0959 -0.002668  0.0039    1.0998   
     8. B(C   8,O   5)                1.4246  0.025407 -0.0268    1.3979   
     9. B(F   9,C   8)                1.3611 -0.000542  0.0005    1.3616   
    10. B(F  10,C   8)                1.3589  0.007982 -0.0071    1.3518   
    11. B(C  11,C   8)                1.5320  0.003063 -0.0043    1.5278   
    12. B(H  12,C  11)                1.0932 -0.006545  0.0095    1.1027   
    13. B(F  13,C  11)                1.3593  0.003841 -0.0034    1.3559   
    14. B(F  14,C  11)                1.3621 -0.001069  0.0010    1.3630   
    15. A(F   2,C   0,F   3)          108.19  0.001506   -0.09    108.10   
    16. A(F   1,C   0,F   3)          107.42 -0.002458    0.31    107.73   
    17. A(F   3,C   0,C   4)          111.37 -0.003355    0.53    111.90   
    18. A(F   2,C   0,C   4)          111.95 -0.000838    0.14    112.09   
    19. A(F   1,C   0,F   2)          107.43 -0.003439    0.39    107.82   
    20. A(F   1,C   0,C   4)          110.28  0.008394   -1.25    109.03   
    21. A(C   0,C   4,O   5)          112.08  0.020437   -3.36    108.73   
    22. A(H   6,C   4,H   7)          108.84 -0.000102    0.63    109.47   
    23. A(O   5,C   4,H   7)          109.95 -0.008573    1.37    111.31   
    24. A(C   0,C   4,H   7)          108.80 -0.000706   -0.47    108.34   
    25. A(O   5,C   4,H   6)          108.50 -0.010614    2.07    110.57   
    26. A(C   0,C   4,H   6)          108.61 -0.000804   -0.16    108.44   
    27. A(C   4,O   5,C   8)          112.84 -0.022186    3.16    116.00   
    28. A(O   5,C   8,F  10)          106.82 -0.005048    0.62    107.44   
    29. A(O   5,C   8,F   9)          109.41 -0.014942    2.78    112.19   
    30. A(F  10,C   8,C  11)          110.28  0.005467   -1.42    108.86   
    31. A(F   9,C   8,C  11)          110.31  0.011106   -1.78    108.52   
    32. A(O   5,C   8,C  11)          113.95  0.008344   -1.50    112.46   
    33. A(F   9,C   8,F  10)          105.68 -0.006658    1.63    107.32   
    34. A(F  13,C  11,F  14)          106.29 -0.013902    1.89    108.18   
    35. A(H  12,C  11,F  14)          108.41 -0.005362    0.88    109.28   
    36. A(C   8,C  11,F  14)          110.67  0.012722   -1.83    108.84   
    37. A(H  12,C  11,F  13)          108.51 -0.005944    0.91    109.42   
    38. A(C   8,C  11,F  13)          111.50  0.010896   -1.59    109.91   
    39. A(C   8,C  11,H  12)          111.28  0.000292   -0.07    111.21   
    40. D(O   5,C   4,C   0,F   3)    -68.80 -0.000487    1.09    -67.70   
    41. D(O   5,C   4,C   0,F   1)    172.03 -0.000752    1.19    173.22   
    42. D(H   6,C   4,C   0,F   2)    -67.38 -0.000462    1.06    -66.32   
    43. D(H   6,C   4,C   0,F   3)    171.34  0.000568    0.70    172.05   
    44. D(O   5,C   4,C   0,F   2)     52.48 -0.001517    1.45     53.93   
    45. D(H   6,C   4,C   0,F   1)     52.17  0.000302    0.80     52.97   
    46. D(C   8,O   5,C   4,C   0)    171.39  0.000990   -0.86    170.53   
    47. D(C   8,O   5,C   4,H   7)     50.24 -0.005847    1.03     51.27   
    48. D(C   8,O   5,C   4,H   6)    -68.69  0.005637   -1.77    -70.46   
    49. D(C  11,C   8,O   5,C   4)   -102.37 -0.002694    4.69    -97.69   
    50. D(F  10,C   8,O   5,C   4)    135.58 -0.011306    6.99    142.57   
    51. D(F   9,C   8,O   5,C   4)     21.63  0.006371    3.41     25.04   
    52. D(H  12,C  11,C   8,F  10)    -58.93  0.000414   -0.52    -59.44   
    53. D(H  12,C  11,C   8,F   9)     57.44  0.002158   -0.43     57.01   
    54. D(H  12,C  11,C   8,O   5)   -179.04 -0.002765    0.75   -178.30   
    55. D(F  13,C  11,C   8,F  10)     62.38  0.000586   -0.50     61.88   
    56. D(F  13,C  11,C   8,F   9)    178.74  0.002331   -0.41    178.33   
    57. D(F  13,C  11,C   8,O   5)    -57.74 -0.002593    0.76    -56.98   
    ----------------------------------------------------------------------------

Geometry step timings:
Preparation and reading OPT file:      0.000 s ( 1.516 %)
Internal coordinates            :      0.000 s ( 1.628 %)
B/P matrices and projection     :      0.001 s (37.788 %)
Hessian update/contruction      :      0.000 s (13.532 %)
Making the step                 :      0.000 s (25.323 %)
Converting the step to Cartesian:      0.000 s ( 4.716 %)
Storing new data                :      0.000 s ( 1.741 %)
Checking convergence            :      0.000 s ( 1.235 %)
Final printing                  :      0.000 s (12.465 %)
Total time                      :      0.002 s

Time for energy+gradient        :     86.930 s
Time for complete geometry iter :     86.978 s

         *************************************************************
         *                GEOMETRY OPTIMIZATION CYCLE   2            *
         *************************************************************
---------------------------------
CARTESIAN COORDINATES (ANGSTROEM)
---------------------------------
  C     -2.814330    1.186873    0.256320
  F     -3.829811    1.464624   -0.588235
  F     -3.137489    1.681778    1.465825
  F     -2.724157   -0.153748    0.363019
  C     -1.539099    1.797503   -0.286864
  O     -0.501222    1.637209    0.687180
  H     -1.720897    2.864048   -0.485410
  H     -1.285424    1.288332   -1.228064
  C      0.791105    1.961828    0.264656
  F      0.786611    2.855277   -0.762790
  F      1.420661    2.550786    1.305862
  C      1.590616    0.732622   -0.164269
  H      2.615200    1.008153   -0.464572
  F      1.644185   -0.161411    0.853669
  F      0.957211    0.141126   -1.216308

----------------------------
CARTESIAN COORDINATES (A.U.)
----------------------------
  NO LB      ZA    FRAG     MASS         X           Y           Z
   0 C     6.0000    0    12.011   -5.318314    2.242865    0.484374
   1 F     9.0000    0    18.998   -7.237295    2.767738   -1.111602
   2 F     9.0000    0    18.998   -5.928994    3.178100    2.770008
   3 F     9.0000    0    18.998   -5.147911   -0.290541    0.686007
   4 C     6.0000    0    12.011   -2.908475    3.396788   -0.542095
   5 O     8.0000    0    15.999   -0.947173    3.093877    1.298583
   6 H     1.0000    0     1.008   -3.252024    5.412267   -0.917291
   7 H     1.0000    0     1.008   -2.429099    2.434594   -2.320705
   8 C     6.0000    0    12.011    1.494971    3.707317    0.500127
   9 F     9.0000    0    18.998    1.486480    5.395692   -1.441464
  10 F     9.0000    0    18.998    2.684660    4.820288    2.467722
  11 C     6.0000    0    12.011    3.005830    1.384455   -0.310423
  12 H     1.0000    0     1.008    4.942012    1.905133   -0.877914
  13 F     9.0000    0    18.998    3.107059   -0.305023    1.613201
  14 F     9.0000    0    18.998    1.808867    0.266689   -2.298489

--------------------------------
INTERNAL COORDINATES (ANGSTROEM)
--------------------------------
 C      0   0   0     0.000000000000     0.00000000     0.00000000
 F      1   0   0     1.349673854907     0.00000000     0.00000000
 F      1   2   0     1.346204143549   107.81465592     0.00000000
 F      1   2   3     1.347879603150   107.73123745   116.43918681
 C      1   2   3     1.514639616965   109.03180747   238.07982995
 O      5   1   2     1.432356034299   108.72778871   173.22458250
 H      5   1   2     1.099995414772   108.44982354    52.97193250
 H      5   1   2     1.099756353166   108.32884480   294.29754432
 C      6   5   1     1.397860249439   115.99878978   170.54523711
 F      9   6   5     1.361585969318   112.17391497    24.98925771
 F      9   6   5     1.351785735576   107.39281609   142.60910349
 C      9   6   5     1.527790056145   112.44676389   262.32553732
 H     12   9   6     1.102665468430   111.20300799   181.69908461
[...]
     25       0.021099   0.044752  -0.006351  -0.110723   0.045812  -0.021334
     26      -0.023881  -0.057851   0.029509  -0.138394   0.045895   0.002077
     27      -0.005830  -0.015290   0.001519  -0.005247  -0.002105   0.000569
     28      -0.004530   0.005592  -0.003846   0.018726  -0.010248   0.005226
     29       0.002510  -0.000214  -0.002241   0.002075   0.001719  -0.001758
     30      -0.003006  -0.013193  -0.002458   0.007958  -0.006704   0.001567
     31      -0.001168  -0.001269   0.001697   0.010765  -0.003719   0.001542
     32       0.001741   0.000326  -0.001784   0.030799  -0.012611   0.001690
     33      -0.008646  -0.020053  -0.040752  -0.103230   0.012306  -0.002488
     34       0.009392   0.001272   0.066748   0.189867  -0.049927   0.011652
     35       0.008246   0.011439  -0.103173   0.141953  -0.052406  -0.000613
     36      -0.036575  -0.148543   0.330319   0.215752  -0.066269   0.026006
     37       0.086986   0.362254  -0.494729  -0.687065   0.198730  -0.056700
     38       0.069231   0.312750   0.789327  -0.470390   0.221778  -0.016686
     39      -0.000615  -0.004121   0.021605   0.019569  -0.003479   0.000982
     40      -0.007032  -0.013194   0.002872  -0.029011   0.006647  -0.001172
     41       0.001673   0.004954   0.005495  -0.004987   0.002797   0.000365
     42      -0.003587  -0.013102  -0.017717   0.010733  -0.001588   0.001038
     43      -0.001981  -0.004412  -0.013288  -0.011290   0.002199  -0.000527
     44      -0.004958  -0.013638   0.006766  -0.022809   0.008492   0.000940
                 42         43         44    
      0      -0.001937   0.000067  -0.000036
      1      -0.000751  -0.000067   0.002672
      2      -0.000203  -0.000078  -0.000374
      3       0.000419  -0.000015   0.000026
      4       0.000106   0.000009  -0.000257
      5       0.000314   0.000010   0.000055
      6      -0.000128  -0.000033   0.000152
      7       0.000281   0.000052  -0.000503
      8       0.000234   0.000038  -0.000123
      9      -0.000066  -0.000028  -0.000321
     10       0.000023  -0.000005  -0.000461
     11       0.000168   0.000029   0.000428
     12       0.012677   0.000643   0.008085
     13      -0.027650  -0.000933   0.091953
     14      -0.061214  -0.003012  -0.025322
     15      -0.001701   0.000543   0.000038
     16       0.000277   0.000176  -0.000527
     17      -0.000262  -0.000224   0.000408
     18      -0.081172  -0.004326  -0.132797
     19      -0.417282  -0.022770  -0.614580
     20       0.355552   0.019093   0.546486
     21      -0.042311  -0.001436   0.034935
     22       0.739149   0.032985  -0.481387
     23       0.371336   0.016447  -0.252714
     24       0.001468  -0.000135  -0.000000
     25       0.000988  -0.002132   0.000284
     26      -0.000508  -0.001265  -0.000504
     27       0.000107   0.000003   0.000263
     28      -0.000240   0.000537  -0.000113
     29       0.000270  -0.000049   0.000281
     30      -0.000174   0.000217  -0.000087
     31      -0.000052   0.000231  -0.000005
     32      -0.000071   0.000473  -0.000015
     33       0.003195  -0.077885   0.000353
     34       0.001303  -0.034687   0.000290
     35      -0.001083   0.010592  -0.000128
     36      -0.041969   0.897001  -0.003987
     37      -0.018608   0.416634  -0.001837
     38       0.006490  -0.110194   0.000472
     39      -0.000017   0.000692  -0.000013
     40       0.000021  -0.000150  -0.000048
     41       0.000044   0.000327   0.000009
     42       0.000332   0.000297   0.000041
     43       0.000045   0.000442  -0.000110
     44       0.000186  -0.000622   0.000054


-----------
IR SPECTRUM
-----------

 Mode   freq       eps      Int      T**2         TX        TY        TZ
       cm**-1   L/(mol*cm) km/mol    a.u.
----------------------------------------------------------------------------
  6:     25.98   0.000029    0.15  0.000346  (-0.015191  0.001516 -0.010612)
  7:     40.26   0.000154    0.78  0.001196  ( 0.008456 -0.030189  0.014608)
  8:     75.79   0.000468    2.36  0.001927  ( 0.009521 -0.035772  0.023585)
  9:     88.61   0.000110    0.56  0.000388  (-0.008337  0.017829 -0.000725)
 10:    150.32   0.000400    2.02  0.000831  (-0.011490  0.007759  0.025268)
 11:    197.07   0.000906    4.58  0.001435  ( 0.023765  0.026921  0.012070)
 12:    213.60   0.000391    1.97  0.000571  ( 0.006308 -0.018412  0.013853)
 13:    291.78   0.000642    3.25  0.000687  (-0.022992 -0.011651  0.004769)
 14:    322.36   0.000135    0.68  0.000130  (-0.007960 -0.001791  0.007995)
 15:    355.75   0.000087    0.44  0.000076  ( 0.001801  0.008523  0.000506)
 16:    362.42   0.000217    1.10  0.000187  ( 0.006092 -0.010750 -0.005827)
 17:    435.67   0.000232    1.17  0.000166  (-0.003004 -0.010323 -0.007111)
 18:    507.67   0.002688   13.58  0.001652  (-0.038035 -0.012063 -0.007756)
 19:    526.68   0.000354    1.79  0.000210  (-0.001280 -0.012665  0.006890)
 20:    540.24   0.001573    7.95  0.000909  (-0.026737 -0.009813  0.009867)
 21:    570.15   0.005783   29.23  0.003165  ( 0.046691 -0.020596 -0.023687)
 22:    605.05   0.000296    1.50  0.000153  ( 0.010296  0.001729  0.006606)
 23:    656.04   0.002976   15.04  0.001416  ( 0.033482 -0.008636 -0.014832)
 24:    699.02   0.006966   35.20  0.003110  (-0.053431  0.003733  0.015527)
 25:    844.46   0.000067    0.34  0.000025  ( 0.004714  0.000166  0.001583)
 26:    870.96   0.012314   62.23  0.004412  ( 0.048240 -0.026513 -0.037177)
 27:    968.00   0.005766   29.14  0.001859  (-0.004323 -0.042214  0.007614)
 28:   1094.75   0.014940   75.50  0.004259  ( 0.048421  0.024797  0.036045)
 29:   1101.26   0.017725   89.58  0.005023  ( 0.004494  0.060985  0.035824)
 30:   1136.40   0.052516  265.39  0.014421  ( 0.013082  0.099505 -0.065946)
 31:   1142.44   0.012908   65.23  0.003526  ( 0.040690 -0.043147  0.002938)
 32:   1184.60   0.063962  323.24  0.016850  ( 0.090853  0.052531  0.076394)
 33:   1193.68   0.039386  199.04  0.010297  (-0.034717  0.069336 -0.065452)
 34:   1226.33   0.037705  190.54  0.009595  (-0.045144 -0.001685 -0.086913)
 35:   1272.06   0.066028  333.68  0.016198  ( 0.117970 -0.012311 -0.046146)
 36:   1310.96   0.019536   98.73  0.004650  ( 0.001705 -0.055129  0.040103)
 37:   1331.95   0.037357  188.79  0.008752  ( 0.058665  0.058282  0.043751)
 38:   1354.35   0.002817   14.23  0.000649  (-0.013006  0.015589 -0.015390)
 39:   1410.47   0.002549   12.88  0.000564  ( 0.019771  0.008733 -0.009838)
 40:   1436.21   0.007565   38.23  0.001644  ( 0.039726 -0.003327 -0.007390)
 41:   1462.00   0.001025    5.18  0.000219  ( 0.007304 -0.004380 -0.012097)
 42:   3075.76   0.002342   11.84  0.000238  (-0.009974 -0.006985 -0.009453)
 43:   3089.15   0.005663   28.62  0.000572  (-0.020249 -0.012687 -0.001058)
 44:   3145.89   0.000598    3.02  0.000059  (-0.001725  0.007496 -0.000327)

* The epsilon (eps) is given for a Dirac delta lineshape.
** The dipole moment derivative (T) already includes vibrational overlap.

The first frequency considered to be a vibration is 6
The total number of vibrations considered is 39


--------------------------
THERMOCHEMISTRY AT 298.15K
--------------------------

Temperature         ...   298.15 K
Pressure            ...     1.00 atm
Total Mass          ...   200.05 AMU
Quasi RRHO          ...     True
Cut-Off Frequency   ...     1.00 cm^-1

Throughout the following assumptions are being made:
  (1) The electronic state is orbitally nondegenerate
  (2) There are no thermally accessible electronically excited states
  (3) Hindered rotations indicated by low frequency modes are not
      treated as such but are treated as vibrations and this may
      cause some error
  (4) All equations used are the standard statistical mechanics
      equations for an ideal gas
  (5) All vibrations are strictly harmonic

freq.      25.98  E(vib)   ...       0.56 
freq.      40.26  E(vib)   ...       0.54 
freq.      75.79  E(vib)   ...       0.49 
freq.      88.61  E(vib)   ...       0.47 
freq.     150.32  E(vib)   ...       0.40 
freq.     197.07  E(vib)   ...       0.35 
freq.     213.60  E(vib)   ...       0.34 
freq.     291.78  E(vib)   ...       0.27 
freq.     322.36  E(vib)   ...       0.25 
freq.     355.75  E(vib)   ...       0.22 
freq.     362.42  E(vib)   ...       0.22 
freq.     435.67  E(vib)   ...       0.17 
freq.     507.67  E(vib)   ...       0.14 
freq.     526.68  E(vib)   ...       0.13 
freq.     540.24  E(vib)   ...       0.12 
freq.     570.15  E(vib)   ...       0.11 
freq.     605.05  E(vib)   ...       0.10 
freq.     656.04  E(vib)   ...       0.08 
freq.     699.02  E(vib)   ...       0.07 
freq.     844.46  E(vib)   ...       0.04 
freq.     870.96  E(vib)   ...       0.04 
freq.     968.00  E(vib)   ...       0.03 
freq.    1094.75  E(vib)   ...       0.02 
freq.    1101.26  E(vib)   ...       0.02 
freq.    1136.40  E(vib)   ...       0.01 
freq.    1142.44  E(vib)   ...       0.01 
freq.    1184.60  E(vib)   ...       0.01 
freq.    1193.68  E(vib)   ...       0.01 
freq.    1226.33  E(vib)   ...       0.01 
freq.    1272.06  E(vib)   ...       0.01 
freq.    1310.96  E(vib)   ...       0.01 
freq.    1331.95  E(vib)   ...       0.01 
freq.    1354.35  E(vib)   ...       0.01 
freq.    1410.47  E(vib)   ...       0.00 
freq.    1436.21  E(vib)   ...       0.00 
freq.    1462.00  E(vib)   ...       0.00 
freq.    3075.76  E(vib)   ...       0.00 
freq.    3089.15  E(vib)   ...       0.00 
freq.    3145.89  E(vib)   ...       0.00 

------------
INNER ENERGY
------------

The inner energy is: U= E(el) + E(ZPE) + E(vib) + E(rot) + E(trans)
    E(el)   - is the total energy from the electronic structure calculation
              = E(kin-el) + E(nuc-el) + E(el-el) + E(nuc-nuc)
    E(ZPE)  - the the zero temperature vibrational energy from the frequency calculation
    E(vib)  - the the finite temperature correction to E(ZPE) due to population
              of excited vibrational states
    E(rot)  - is the rotational thermal energy
    E(trans)- is the translational thermal energy

Summary of contributions to the inner energy U:
Electronic energy                ...   -928.02002923 Eh
Zero point energy                ...      0.08273420 Eh      51.92 kcal/mol
Thermal vibrational correction   ...      0.00840242 Eh       5.27 kcal/mol
Thermal rotational correction    ...      0.00141627 Eh       0.89 kcal/mol
Thermal translational correction ...      0.00141627 Eh       0.89 kcal/mol
-----------------------------------------------------------------------
Total thermal energy                   -927.92606006 Eh


Summary of corrections to the electronic energy:
(perhaps to be used in another calculation)
Total thermal correction                  0.01123496 Eh       7.05 kcal/mol
Non-thermal (ZPE) correction              0.08273420 Eh      51.92 kcal/mol
-----------------------------------------------------------------------
Total correction                          0.09396916 Eh      58.97 kcal/mol


--------
ENTHALPY
--------

The enthalpy is H = U + kB*T
                kB is Boltzmann's constant
Total thermal energy              ...   -927.92606006 Eh 
Thermal Enthalpy correction       ...      0.00094421 Eh       0.59 kcal/mol
-----------------------------------------------------------------------
Total Enthalpy                    ...   -927.92511585 Eh


Note: Only C1 symmetry has been detected, increase convergence thresholds 
      if your molecule has a higher symmetry. Symmetry factor of 1.0 is   
      used for the rotational entropy correction. 
 

Note: Rotational entropy computed according to Herzberg 
Infrared and Raman Spectra, Chapter V,1, Van Nostrand Reinhold, 1945 
Point Group:  C1, Symmetry Number:   1  
Rotational constants in cm-1:     0.051125     0.017285     0.016290 

Vibrational entropy computed according to the QRRHO of S. Grimme
Chem.Eur.J. 2012 18 9955 using a reference frequency of 100.0 cm-1


-------
ENTROPY
-------

The entropy contributions are T*S = T*(S(el)+S(vib)+S(rot)+S(trans))
     S(el)   - electronic entropy
     S(vib)  - vibrational entropy
     S(rot)  - rotational entropy
     S(trans)- translational entropy
The entropies will be listed as multiplied by the temperature to get
units of energy

Electronic entropy                ...      0.00000000 Eh      0.00 kcal/mol
Vibrational entropy               ...      0.01502969 Eh      9.43 kcal/mol
Rotational entropy                ...      0.01477394 Eh      9.27 kcal/mol
Translational entropy             ...      0.01985330 Eh     12.46 kcal/mol
-----------------------------------------------------------------------
Final entropy term                ...      0.04965693 Eh     31.16 kcal/mol

In case the symmetry of your molecule has not been determined correctly
or in case you have a reason to use a different symmetry number we print 
out the resulting rotational entropy values for sn=1,12:

 non-linear molecules -----------------------------------
|  sn= 1 | S(rot)=       0.01477394 Eh      9.27 kcal/mol|
|  sn= 2 | S(rot)=       0.01411949 Eh      8.86 kcal/mol|
|  sn= 3 | S(rot)=       0.01373666 Eh      8.62 kcal/mol|
|  sn= 4 | S(rot)=       0.01346503 Eh      8.45 kcal/mol|
|  sn= 5 | S(rot)=       0.01325434 Eh      8.32 kcal/mol|
|  sn= 6 | S(rot)=       0.01308220 Eh      8.21 kcal/mol|
|  sn= 7 | S(rot)=       0.01293665 Eh      8.12 kcal/mol|
|  sn= 8 | S(rot)=       0.01281057 Eh      8.04 kcal/mol|
|  sn= 9 | S(rot)=       0.01269937 Eh      7.97 kcal/mol|
|  sn=10 | S(rot)=       0.01259989 Eh      7.91 kcal/mol|
|  sn=11 | S(rot)=       0.01250990 Eh      7.85 kcal/mol|
|  sn=12 | S(rot)=       0.01242774 Eh      7.80 kcal/mol|
 linear molecules ---------------------------------------
|  Dinfh | S(rot)=       0.00921317 Eh      5.78 kcal/mol|
|  Cinfv | S(rot)=       0.00986763 Eh      6.19 kcal/mol|
 --------------------------------------------------------


-------------------
GIBBS FREE ENERGY
-------------------

The Gibbs free energy is G = H - T*S

Total enthalpy                    ...   -927.92511585 Eh 
Total entropy correction          ...     -0.04965693 Eh    -31.16 kcal/mol
-----------------------------------------------------------------------
Final Gibbs free energy         ...   -927.97477279 Eh

For completeness - the Gibbs free energy minus the electronic energy
G-E(el)                           ...      0.04525644 Eh     28.40 kcal/mol


Maximum memory used throughout the entire PROP-calculation: 65.4 MB

--------------------------------
SUGGESTED CITATIONS FOR THIS RUN
--------------------------------

Below you find a list of papers that are relevant to this ORCA run
We neither can nor want to force you to cite these papers, but we appreciate if you do
You receive ORCA, which is the product of decades of hard work by many enthusiastic individuals, for free
The only thing we kindly ask in return is that you cite our papers,
We deeply appreciate it, if you show your appreciation for ORCA by not just citing the generic ORCA reference.

Please note that relegating all ORCA citations to the supporting information does *not* help us.
SI sections are not indexed - citations you put there will not count into any citation statistics
But we need these citations in order to attract the funding resources that allow us to do what we are doing

Therefore, if you are a happy ORCA user, please consider citing a few of the papers listed below in the main body of your paper

In addition to the list printed below, the program has created the file TFTFE_C3.bibtex that contains the list in bibtex format
You can import this file easily into all common literature databanks and citation aid programs


List of essential papers. We consider these as the minimum necessary citations

  1. Neese, F.
     Software update: the ORCA program system, version 6.0
     WIRES Comput. Molec. Sci. 2025 15(1), e70019
     doi.org/10.1002/wcms.7019

List of papers to cite with high priority. The work reported in these papers was absolutely
necessary for this run to complete.
Our perspective: the developers of density functionals and basis sets usually get cited in chemistry papers
Good! But without the algorithms to do something with them, the functionals or basis sets would not do anything.
Hence, in our opinion, the algorithm design and method developments papers are equally worthy of getting cited

  1. Neese, F.
     An improvement of the resolution of the identity approximation for the formation of the Coulomb matrix
     J. Comp. Chem. 2003 24(14), 1740-1747
     doi.org/10.1002/jcc.10318
  2. Neese, F.; Wennmohs, F.; Hansen, A.; Becker, U.
     Efficient, approximate and parallel Hartree-Fock and hybrid DFT calculations. A 'chain-of-spheres' algorithm for the Hartree-Fock exchange
     Chem. Phys. 2009 356(1-3), 98-109
     doi.org/10.1016/j.chemphys.2008.10.036
  3. Bykov, D.; Petrenko, T.; Izsak, R.; Kossmann, S.; Becker, U.; Valeev, E.; Neese, F.
     Efficient implementation of the analytic second derivatives of Hartree-Fock and hybrid DFT energies: a detailed analysis of different approximations
     Molec. Phys. 2015 113 , 1961-1977
     doi.org/10.1080/00268976.2015.1025114
  4. Helmich-Paris, B.; de Souza, B.; Neese, F.; Izsák, R.
     An improved chain of spheres for exchange algorithm
     J. Chem. Phys. 2021 155(10), 104109
     doi.org/10.1063/5.0058766
  5. Neese, F.
     The SHARK Integral Generation and Digestion System
     J. Comp. Chem. 2022 44(3), 381
     doi.org/10.1002/jcc.26942

List of suggested additional citations. These are papers that are important in the 'surrounding' of 
of this run, or papers that preceded the highly important papers. If you like your results we are grateful for a citation.

  1. Izsak, R.; Neese, F.
     An overlap fitted chain of spheres exchange method
     J. Chem. Phys. 2011 135 , 144105
     doi.org/10.1063/1.3646921
  2. Izsak, R.; Hansen, A.; Neese, F.
     The resolution of identity and chain of spheres approximations for the LPNO-CCSD singles Fock term
     Molec. Phys. 2012 110 , 2413-2417
     doi.org/10.1080/00268976.2012.687466
  3. Neese, F.
     The ORCA program system
     WIRES Comput. Molec. Sci. 2012 2(1), 73-78
     doi.org/10.1002/wcms.81
  4. Izsak, R.; Neese, F.; Klopper, W.
     Robust fitting techniques in the chain of spheres approximation to the Fock exchange: The role of the complementary space
     J. Chem. Phys. 2013 139 , 
     doi.org/10.1063/1.4819264
  5. Neese, F.
     Software update: the ORCA program system, version 4.0
     WIRES Comput. Molec. Sci. 2018 8(1), 1-6
     doi.org/10.1002/wcms.1327
  6. Neese, F.; Wennmohs, F.; Becker, U.; Riplinger, C.
     The ORCA quantum chemistry program package
     J. Chem. Phys. 2020 152(22), 224108
     doi.org/10.1063/5.0004608
  7. Neese, F.
     Software update: The ORCA program system—Version 5.0
     WIRES Comput. Molec. Sci. 2022 12(1), e1606
     doi.org/10.1002/wcms.1606

List of optional additional citations

  1. Neese, F.
     Approximate second-order SCF convergence for spin unrestricted wavefunctions
     Chem. Phys. Lett. 2000 325(1-3), 93-98
     doi.org/10.1016/s0009-2614(00)00662-x

Timings for individual modules:

Sum of individual times          ...     2049.700 sec (=  34.162 min)
Startup calculation              ...       94.084 sec (=   1.568 min)   4.6 %
SCF iterations                   ...      798.777 sec (=  13.313 min)  39.0 %
Property integrals               ...      120.819 sec (=   2.014 min)   5.9 %
SCF Response                     ...       94.692 sec (=   1.578 min)   4.6 %
Property calculations            ...      334.066 sec (=   5.568 min)  16.3 %
SCF Gradient evaluation          ...      607.195 sec (=  10.120 min)  29.6 %
Geometry relaxation              ...        0.068 sec (=   0.001 min)   0.0 %
                             ****ORCA TERMINATED NORMALLY****
TOTAL RUN TIME: 0 days 0 hours 34 minutes 10 seconds 893 msec
