
                                 *****************
                                 * O   R   C   A *
                                 *****************

                                            #,                                       
                                            ###                                      
                                            ####                                     
                                            #####                                    
                                            ######                                   
                                           ########,                                 
                                     ,,################,,,,,                         
                               ,,#################################,,                 
                          ,,##########################################,,             
                       ,#########################################, ''#####,          
                    ,#############################################,,   '####,        
                  ,##################################################,,,,####,       
                ,###########''''           ''''###############################       
              ,#####''   ,,,,##########,,,,          '''####'''          '####       
            ,##' ,,,,###########################,,,                        '##       
           ' ,,###''''                  '''############,,,                           
         ,,##''                                '''############,,,,        ,,,,,,###''
      ,#''                                            '''#######################'''  
     '                                                          ''''####''''         
             ,#######,   #######,   ,#######,      ##                                
            ,#'     '#,  ##    ##  ,#'     '#,    #''#        ,####,    ,#,          
            ##       ##  ##   ,#'  ##            #'  '#       #'       ,# #          
            ##       ##  #######   ##           ,######,      #####,      #          
            '#,     ,#'  ##    ##  '#,     ,#' ,#      #,     #,   #      #          
             '#######'   ##     ##  '#######'  #'      '#     '####' #    #          



                #########################################################
                #                        -***-                          #
                #          Department of theory and spectroscopy        #
                #                                                       #
                #                      Frank Neese                      #
                #                                                       #
                #     Directorship, Architecture, Infrastructure        #
                #                    SHARK, DRIVERS                     #
                #        Core code/Algorithms in most modules           #
                #                                                       #
                #        Max Planck Institute fuer Kohlenforschung      #
                #                Kaiser Wilhelm Platz 1                 #
                #                 D-45470 Muelheim/Ruhr                 #
                #                      Germany                          #
                #                                                       #
                #                  All rights reserved                  #
                #                        -***-                          #
                #########################################################


                         Program Version 6.1.0  -  RELEASE   -
                                (GIT: $679e74b$)
                          ($2025-06-10 18:02:51 +0200$)


 With contributions from (in alphabetic order):
[Max-Planck-Institut fuer Kohlenforschung]                               
  Daniel Aravena         : Magnetic Suceptibility                        
  Michael Atanasov       : Ab Initio Ligand Field Theory (pilot matlab implementation)
  Alexander A. Auer      : GIAO ZORA, VPT2 properties, NMR spectrum      
  Ute Becker             : All parallelization in ORCA, NUMFREQ, NUMCALC 
  Giovanni Bistoni       : ED, misc. LED, open-shell LED, HFLD           
  Dmytro Bykov           : pre 5.0 version of the SCF Hessian            
  Marcos Casanova-Páez   : Triplet and SCS-CIS(D). UHF-(DLPNO)-IP/EA/STEOM-CCSD. UHF-CVS-IP/STEOM-CCSD   
  Vijay G. Chilkuri      : MRCI spin determinant printing, contributions to CSF-ICE 
  Pauline Colinet        : FMM embedding                                 
  Dipayan Datta          : RHF DLPNO-CCSD density                        
  Achintya Kumar Dutta   : EOM-CC, STEOM-CC                              
  Nicolas Foglia         : Exact transition moments, OPA infrastructure, MCD improvements    
  Dmitry Ganyushin       : Spin-Orbit,Spin-Spin,Magnetic field MRCI      
  Miquel Garcia-Rates    : C-PCM and meta-GGA Hessian, CCSD/C-PCM, Gaussian charge scheme 
  Tiago L. C. Gouveia    : GS-ROHF, GS-ROCIS                             
  Yang Guo               : DLPNO-NEVPT2, F12-NEVPT2, CIM, IAO-localization        
  Andreas Hansen         : Spin unrestricted coupled pair/coupled cluster methods 
  Ingolf Harden          : AUTO-CI MPn and infrastructure                
  Benjamin Helmich-Paris : MC-RPA, TRAH-(SCF,CASSCF), AVAS, COSX integrals, SCF dyn. polar., MC-PDFT, srDFT 
  Lee Huntington         : MR-EOM, pCC                                   
  Robert Izsak           : Overlap fitted RIJCOSX, COSX-SCS-MP3, EOM     
  Riya Kayal             : Wick's Theorem for AUTO-CI, AUTO-CI UHF-CCSDT 
  Emily Kempfer          : AUTO-CI RHF CISDT and CCSDT, approximate NEVPT4
  Christian Kollmar      : KDIIS, OOCD, Brueckner-CCSD(T), CCSD density, CASPT2, CASPT2-K, improved NEVPT2 
  Axel Koslowski         : Symmetry handling                             
  Simone Kossmann        : meta-GGA functionals, TD-DFT gradient, OOMP2, (MP2 Hessian; deprecated post 5.0) 
  Lucas Lang             : DCDCAS, Hyperfine gauge corrections, ICE-SOC+SSC
  Marvin Lechner         : AUTO-CI (C++ implementation), FIC-MRCC        
  Spencer Leger          : CASSCF response                               
  Dagmar Lenk            : GEPOL surface, SMD, ORCA-2-JSON               
  Dimitrios Liakos       : Extrapolation schemes; Compound Job, Property file
  Dimitrios Manganas     : Further ROCIS development; embedding schemes. LFT, Crystal Embedding 
  Dimitrios Pantazis     : SARC Basis sets                               
  Anastasios Papadopoulos: AUTO-CI, single reference methods and gradients 
  Taras Petrenko         : pre 6.0 DFT Hessian and TD-DFT gradient,  ECA, NRVS 
  Petra Pikulova         : Analytic Raman intensities                    
  Peter Pinski           : DLPNO-MP2, DLPNO-MP2 Gradient                 
  Shashank Vittal Rao    : ES-AILFT, MagRelax                            
  Christoph Reimann      : Effective Core Potentials                     
  Marius Retegan         : Local ZFS, SOC                                
  Christoph Riplinger    : Optimizer, TS searches, QM/MM, DLPNO-CCSD(T), (RO)-DLPNO pert. Triples 
  Michael Roemelt        : Original ROCIS implementation, recursive CI coupling coefficients
  Masaaki Saitow         : Open-shell DLPNO-CCSD energy and density      
  Barbara Sandhoefer     : DKH picture change effects                    
  Yorick L. A. Schmerwitz: GMF and freeze-and-release deltaSCF, NEB S-IDPP initial path                    
  Kantharuban Sivalingam : CASSCF convergence/infrastructure, NEVPT2, NEVPT3, NEVPT4(SD), FIC-MRCI and CEPA variants
  Bernardo de Souza      : ESD, SOC TD-DFT                               
  Georgi L. Stoychev     : AutoAux, RI-MP2 NMR, DLPNO-MP2 response, X2C  
  Van Anh Tran           : RI-MP2 g-tensors                              
  Willem Van den Heuvel  : Paramagnetic NMR                              
  Zikuan Wang            : NOTCH, Electric field optimization            
  Frank Wennmohs         : Technical directorship and infrastructure     
  Hang Xu                : AUTO-CI-Response properties                   
                                                                         
[FACCTs GmbH]                                                            
  Markus Bursch, Nicolas Foglia, Miquel Garcia-Rates, Ingolf Harden, Hagen Neugebauer, Anastasios Papadopoulos, 
  Christoph Riplinger, Bernardo de Souza, Georgi L. Stoychev                                                    
                                                                 
  APM, various basis sets, CI-OPT, improved COSX, DLPNO-Multilevel,           
  DOCKER, DRACO, updates on ESD, Fragmentator, GOAT, IRC, LR-CPCM, L-BFGS, MBIS, meta-GGA TD-DFT gradient, ML-optimized integration grids, 
  MM, NACMEs, nearIR, NEB, NEB-TS, NL-DFT gradient (VV10), 2- and 3-layer-ONIOM, interface openCOSMO-RS, QMMM,   
  Crystal-QMMM, RESP, rigid body optimization, SF, symmetry and pop. for TD-DFT, various functionals, SOLVATOR                                   
                                                                         
[Other institutions]                                                     
  V. Asgeirsson          : NEB                                           
  Christoph Bannwarth    : sTDA-DFT, sTD-DFT, PBEh-3c, B97-3c, D3        
  Giovanni Bistoni       : ETS/NOCV, ADLD/ADEX, COVALED                  
  Martin Brehm           : Molecular dynamics                            
  Ronald Cardenas        : ETS/NOCV                                      
  Martina Colucci        : COVALED                                       
  Sebastian Ehlert       : rSCAN, r2SCAN, r2SCAN-3c, D4, dhf basis sets  
  Marvin Friede          : D4 for Fr, Ra, Ac-Lr                          
  Lars Goerigk           : TD-DFT with DH, B97 family of functionals     
  Stefan Grimme          : VdW corrections, initial TS optimization, DFT functionals, gCP, sTDA/sTD-DF 
  Waldemar Hujo          : DFT-NL                                        
  H. Jonsson             : NEB                                           
  Holger Kruse           : gCP                                           
  Marcel Mueller         : wB97X-3c, vDZP basis set                      
  Hagen Neugebauer       : wr2SCAN, Native XTB                           
  Gianluca Regni         : ADLD/ADEX                                     
  Tobias Risthaus        : pre 6.0 range-separated hybrid DFT and stability analysis
  Lukas Wittmann         : regularized MP2, r2SCAN double-hybrids, wr2SCAN        
                                                                         
We gratefully acknowledge several colleagues who have allowed us to      
interface, adapt or use parts of their codes:                            
  Ed Valeev, F. Pavosevic, A. Kumar             : LibInt (2-el integral package), F12 methods 
  Garnet Chan, S. Sharma, J. Yang, R. Olivares  : DMRG                   
  Ulf Ekstrom                                   : XCFun DFT Library      
  Mihaly Kallay                                 : mrcc  (arbitrary order and MRCC methods)
  Frank Weinhold                                : gennbo (NPA and NBO analysis)           
  Simon Mueller                                 : openCOSMO-RS                            
  Christopher J. Cramer and Donald G. Truhlar   : smd solvation model                     
  S Lehtola, MJT Oliveira, MAL Marques          : LibXC Library                           
  Liviu Ungur et al                             : ANISO software                          


 Your calculation uses the libint2 library for the computation of 2-el integrals
 For citations please refer to: http://libint.valeyev.net

 Your ORCA version has been built with support for libXC version: 7.0.0
 For citations please refer to: https://libxc.gitlab.io

 This ORCA versions uses:
   CBLAS   interface :  Fast vector & matrix operations
   LAPACKE interface :  Fast linear algebra routines
   SCALAPACK package :  Parallel linear algebra routines
   Shared memory     :  Shared parallel matrices
   BLAS/LAPACK       :  OpenBLAS 0.3.29  USE64BITINT DYNAMIC_ARCH NO_AFFINITY Haswell SINGLE_THREADED
        Core in use  :  Haswell
   Copyright (c) 2011-2014, The OpenBLAS Project


  ***********************************
  * Starting time: Wed Dec 31 10:25:23 2025
  * Host name:     BOOK-611GI2U5BQ
  * Process ID:    203144
  * Working dir.:  /home/a_limbo/IR_lab/TFTFE/B3LYP_cc_pVDZ
  ***********************************

Warning: RI is on but no J-basis has been assigned. Assigning Def2/J (nothing to worry about!)
================================================================================

----- Orbital basis set information -----
Your calculation utilizes the basis: cc-pVDZ 
       H, B-Ne : Obtained from the ccRepo (grant-hill.group.shef.ac.uk/ccrepo) Feb. 2017
                 T. H. Dunning, Jr., J. Chem. Phys. 90, 1007 (1989)
            He : Obtained from the ccRepo (grant-hill.group.shef.ac.uk/ccrepo) Feb. 2017
                 D. E. Woon, T. H. Dunning, Jr., J. Chem. Phys. 100, 2975 (1994)
  Li-Be, Na-Mg : Obtained from the ccRepo (grant-hill.group.shef.ac.uk/ccrepo) Feb. 2017
                 B. P. Prascher, D. E. Woon, K. A. Peterson, T. H. Dunning, Jr., A. K. Wilson, Theor. Chem. Acc. 128, 69 (2011)
         Al-Ar : Obtained from the ccRepo (grant-hill.group.shef.ac.uk/ccrepo) Feb. 2017
                 D. E. Woon, T. H. Dunning, Jr., J. Chem. Phys. 98, 1358 (1993)
            Ca : Obtained from the Peterson Research Group Website (tyr0.chem.wsu.edu/~kipeters) Feb. 2017
                 J. Koput, K. A. Peterson, J. Phys. Chem. 106, 9595 (2002)
         Sc-Zn : Obtained from the ccRepo (grant-hill.group.shef.ac.uk/ccrepo) Feb. 2017
                 N. B. Balabanov, K. A. Peterson, J. Chem. Phys. 123, 064107 (2005)
                 N. B. Balabanov, K. A. Peterson, J. Chem. Phys. 125, 074110 (2006)
         Ga-Kr : Obtained from the ccRepo (grant-hill.group.shef.ac.uk/ccrepo) Feb. 2017
                 A. K. Wilson, D. E. Woon, K. A. Peterson, T. H. Dunning, Jr., J. Chem. Phys. 110, 7667 (1999)

----- AuxJ basis set information -----
Your calculation utilizes the auxiliary basis: def2/J
   H-Rn: F. Weigend, Phys. Chem. Chem. Phys. 8, 1057 (2006).
   Fr-Lr: K. Eichkorn, F. Weigend, O. Treutler, R. Ahlrichs; Theor. Chem. Acc. 97, 119 (1997).

================================================================================
                                        WARNINGS
                       Please study these warnings very carefully!
================================================================================


WARNING: Geometry Optimization
  ===> : Switching off AutoStart
         For restart on a previous wavefunction, please use MOREAD

================================================================================
                                       INPUT FILE
================================================================================
NAME = TFTFE_C1.inp
|  1> # avogadro generated ORCA input file 
|  2> # Basic Mode
|  3> # 
|  4> ! B3LYP cc-pVDZ OPT FREQ 
|  5> 
|  6> * xyz 0 1
|  7>    O       -0.31129       -0.60915       -1.31147
|  8>    C       -1.61667       -0.16061       -0.92357
|  9>    C       -1.58265        0.45830        0.46832
| 10>    F       -1.28536       -0.46081        1.41254
| 11>    F       -2.78320        0.99527        0.78281
| 12>    F       -0.66329        1.44642        0.54271
| 13>    H       -2.29321       -1.02210       -0.93115
| 14>    H       -2.01324        0.58462       -1.62138
| 15>    C       -0.10010       -0.50721       -2.71597
| 16>    F       -0.99439       -1.33288       -3.31556
| 17>    F       -0.39950        0.75865       -3.10101
| 18>    C        1.33424       -0.87704       -3.10275
| 19>    F        2.22912       -0.03572       -2.51506
| 20>    F        1.52747       -0.76194       -4.44382
| 21>    H        1.58000       -1.89924       -2.80229
| 22> *
| 23> 
| 24> 
| 25>                          ****END OF INPUT****
================================================================================

                       *****************************
                       * Geometry Optimization Run *
                       *****************************

Geometry optimization settings:
Update method            Update   .... BFGS
Choice of coordinates    CoordSys .... (2022) Redundant Internals
Initial Hessian          InHess   .... Almloef's Model
Max. no of cycles        MaxIter  .... 50

Convergence Tolerances:
Energy Change            TolE     ....  5.0000e-06 Eh
Max. Gradient            TolMAXG  ....  3.0000e-04 Eh/bohr
RMS Gradient             TolRMSG  ....  1.0000e-04 Eh/bohr
Max. Displacement        TolMAXD  ....  4.0000e-03 bohr
RMS Displacement         TolRMSD  ....  2.0000e-03 bohr
Strict Convergence                .... False

------------------------------------------------------------------------------
                        ORCA OPTIMIZATION COORDINATE SETUP
------------------------------------------------------------------------------

The optimization will be done in redundant internal coordinates (2022)
Making redundant internal coordinates   ...  (2022 redundants) done
Evaluating the initial hessian          ...  (Almloef) done
Evaluating the coordinates              ...  done
Calculating the B-matrix                .... done
Calculating the G-matrix                .... done
The number of degrees of freedom        ....   57

    -----------------------------------------------------------------
                    Redundant Internal Coordinates


    -----------------------------------------------------------------
         Definition                    Initial Value    Approx d2E/dq
    -----------------------------------------------------------------
      1. B(C   1,O   0)                  1.4338         0.476494   
      2. B(C   2,C   1)                  1.5237         0.382366   
      3. B(F   3,C   2)                  1.3508         0.600464   
      4. B(F   4,C   2)                  1.3522         0.597318   
      5. B(F   5,C   2)                  1.3517         0.598474   
      6. B(H   6,C   1)                  1.0954         0.353010   
      7. B(H   7,C   1)                  1.0953         0.353220   
      8. B(C   8,O   0)                  1.4239         0.493994   
      9. B(F   9,C   8)                  1.3568         0.587332   
     10. B(F  10,C   8)                  1.3566         0.587886   
     11. B(C  11,C   8)                  1.5309         0.372320   
     12. B(F  12,C  11)                  1.3616         0.577092   
     13. B(F  13,C  11)                  1.3598         0.580965   
     14. B(H  14,C  11)                  1.0934         0.355604   
     15. A(C   1,O   0,C   8)          112.3021         0.392749   
     16. A(O   0,C   1,H   7)          111.7250         0.334523   
     17. A(C   2,C   1,H   6)          109.8504         0.324499   
     18. A(C   2,C   1,H   7)          108.2836         0.324530   
     19. A(H   6,C   1,H   7)          107.8835         0.289058   
     20. A(O   0,C   1,H   6)          108.3248         0.334490   
     21. A(O   0,C   1,C   2)          110.7257         0.378018   
     22. A(F   4,C   2,F   5)          107.5035         0.419160   
     23. A(C   1,C   2,F   4)          110.7279         0.391487   
     24. A(F   3,C   2,F   5)          108.0130         0.419553   
     25. A(C   1,C   2,F   5)          111.2473         0.391620   
     26. A(C   1,C   2,F   3)          111.5356         0.391847   
     27. A(F   3,C   2,F   4)          107.6389         0.419408   
     28. A(O   0,C   8,F  10)          108.3020         0.405762   
     29. A(O   0,C   8,F   9)          107.1307         0.405694   
     30. A(F  10,C   8,C  11)          111.1303         0.388589   
     31. A(F   9,C   8,C  11)          111.0310         0.388525   
     32. A(O   0,C   8,C  11)          111.7686         0.378636   
     33. A(F   9,C   8,F  10)          107.2741         0.416576   
     34. A(F  13,C  11,H  14)          108.5539         0.344745   
     35. A(F  12,C  11,H  14)          108.1386         0.344358   
     36. A(C   8,C  11,H  14)          111.5306         0.323472   
     37. A(F  12,C  11,F  13)          106.2586         0.414401   
     38. A(C   8,C  11,F  13)          111.2142         0.387787   
     39. A(C   8,C  11,F  12)          110.9436         0.387335   
     40. D(C   2,C   1,O   0,C   8)   -148.0643         0.017906   
     41. D(H   7,C   1,O   0,C   8)    -27.2777         0.017906   
     42. D(H   6,C   1,O   0,C   8)     91.4200         0.017906   
     43. D(F   3,C   2,C   1,H   7)    171.2047         0.011645   
     44. D(F   3,C   2,C   1,H   6)     53.6160         0.011645   
     45. D(F   4,C   2,C   1,O   0)    174.1685         0.011645   
     46. D(F   4,C   2,C   1,H   7)     51.3607         0.011645   
     47. D(F   3,C   2,C   1,O   0)    -65.9875         0.011645   
     48. D(F   4,C   2,C   1,H   6)    -66.2280         0.011645   
     49. D(C  11,C   8,O   0,C   1)    175.2056         0.019278   
     50. D(F  10,C   8,O   0,C   1)     52.4581         0.019278   
     51. D(F   9,C   8,O   0,C   1)    -62.9607         0.019278   
     52. D(F  12,C  11,C   8,F  10)     59.8255         0.011073   
     53. D(F  12,C  11,C   8,F   9)    179.1438         0.011073   
     54. D(F  12,C  11,C   8,O   0)    -61.2956         0.011073   
     55. D(F  13,C  11,C   8,F  10)    -58.2175         0.011073   
     56. D(F  13,C  11,C   8,F   9)     61.1008         0.011073   
     57. D(F  13,C  11,C   8,O   0)   -179.3385         0.011073   
    -----------------------------------------------------------------

Number of atoms                         .... 15
Number of degrees of freedom            .... 57


         *************************************************************
         *                GEOMETRY OPTIMIZATION CYCLE   1            *
         *************************************************************
---------------------------------
CARTESIAN COORDINATES (ANGSTROEM)
---------------------------------
  O     -0.311290   -0.609150   -1.311470
  C     -1.616670   -0.160610   -0.923570
  C     -1.582650    0.458300    0.468320
  F     -1.285360   -0.460810    1.412540
  F     -2.783200    0.995270    0.782810
  F     -0.663290    1.446420    0.542710
  H     -2.293210   -1.022100   -0.931150
  H     -2.013240    0.584620   -1.621380
  C     -0.100100   -0.507210   -2.715970
  F     -0.994390   -1.332880   -3.315560
  F     -0.399500    0.758650   -3.101010
  C      1.334240   -0.877040   -3.102750
  F      2.229120   -0.035720   -2.515060
  F      1.527470   -0.761940   -4.443820
  H      1.580000   -1.899240   -2.802290

----------------------------
CARTESIAN COORDINATES (A.U.)
----------------------------
  NO LB      ZA    FRAG     MASS         X           Y           Z
   0 O     8.0000    0    15.999   -0.588253   -1.151127   -2.478319
   1 C     6.0000    0    12.011   -3.055064   -0.303509   -1.745294
   2 C     6.0000    0    12.011   -2.990775    0.866061    0.884997
   3 F     9.0000    0    18.998   -2.428978   -0.870805    2.669314
   4 F     9.0000    0    18.998   -5.259486    1.880788    1.479297
   5 F     9.0000    0    18.998   -1.253436    2.733338    1.025573
   6 H     1.0000    0     1.008   -4.333539   -1.931489   -1.759618
   7 H     1.0000    0     1.008   -3.804472    1.104772   -3.063964
   8 C     6.0000    0    12.011   -0.189162   -0.958488   -5.132439
   9 F     9.0000    0    18.998   -1.879125   -2.518778   -6.265500
  10 F     9.0000    0    18.998   -0.754946    1.433641   -5.860060
  11 C     6.0000    0    12.011    2.521348   -1.657365   -5.863348
  12 F     9.0000    0    18.998    4.212426   -0.067501   -4.752775
  13 F     9.0000    0    18.998    2.886500   -1.439858   -8.397603
  14 H     1.0000    0     1.008    2.985767   -3.589043   -5.295561

--------------------------------
INTERNAL COORDINATES (ANGSTROEM)
--------------------------------
 O      0   0   0     0.000000000000     0.00000000     0.00000000
 C      1   0   0     1.433761307192     0.00000000     0.00000000
 C      2   1   0     1.523668179296   110.72574513     0.00000000
 F      3   2   1     1.350813067971   111.53555887   294.01251389
 F      3   2   1     1.352242967628   110.72794836   174.16851898
 F      3   2   1     1.351716618267   111.24734447    54.68486949
 H      2   1   3     1.095412638278   108.32477424   239.48422960
 H      2   1   3     1.095250799543   111.72496752   120.78656304
 C      1   2   3     1.423942846360   112.30209621   211.93573830
 F      9   1   2     1.356832237640   107.13069388   297.03926389
 F      9   1   2     1.356575726305   108.30203807    52.45810575
 C      9   1   2     1.530916141694   111.76863254   175.20559202
 F     12   9   1     1.361620025154   110.94356288   298.70440314
 F     12   9   1     1.359799466024   111.21420573   180.66148382
 H     12   9   1     1.093419877815   111.53063991    59.32447593

---------------------------
INTERNAL COORDINATES (A.U.)
---------------------------
 O      0   0   0     0.000000000000     0.00000000     0.00000000
 C      1   0   0     2.709416212005     0.00000000     0.00000000
 C      2   1   0     2.879315577840   110.72574513     0.00000000
 F      3   2   1     2.552666756586   111.53555887   294.01251389
 F      3   2   1     2.555368875338   110.72794836   174.16851898
 F      3   2   1     2.554374219195   111.24734447    54.68486949
 H      2   1   3     2.070029889982   108.32477424   239.48422960
 H      2   1   3     2.069724059095   111.72496752   120.78656304
 C      1   2   3     2.690862009977   112.30209621   211.93573830
 F      9   1   2     2.564041338816   107.13069388   297.03926389
 F      9   1   2     2.563556602642   108.30203807    52.45810575
 C      9   1   2     2.893012241802   111.76863254   175.20559202
 F     12   9   1     2.573088946004   110.94356288   298.70440314
 F     12   9   1     2.569648587838   111.21420573   180.66148382
 H     12   9   1     2.066264118455   111.53063991    59.32447593

---------------------
BASIS SET INFORMATION
---------------------
There are 4 groups of distinct atoms

 Group   1 Type O   : 17s4p1d contracted to 3s2p1d pattern {881/31/1}
 Group   2 Type C   : 17s4p1d contracted to 3s2p1d pattern {881/31/1}
 Group   3 Type F   : 17s4p1d contracted to 3s2p1d pattern {881/31/1}
 Group   4 Type H   : 4s1p contracted to 2s1p pattern {31/1}

Atom   0O    basis set group =>   1
Atom   1C    basis set group =>   2
Atom   2C    basis set group =>   2
Atom   3F    basis set group =>   3
Atom   4F    basis set group =>   3
Atom   5F    basis set group =>   3
Atom   6H    basis set group =>   4
Atom   7H    basis set group =>   4
Atom   8C    basis set group =>   2
Atom   9F    basis set group =>   3
Atom  10F    basis set group =>   3
Atom  11C    basis set group =>   2
Atom  12F    basis set group =>   3
Atom  13F    basis set group =>   3
Atom  14H    basis set group =>   4
---------------------------------
AUXILIARY/J BASIS SET INFORMATION
---------------------------------
There are 4 groups of distinct atoms

 Group   1 Type O   : 12s5p4d2f1g contracted to 6s4p3d1f1g pattern {711111/2111/211/2/1}
 Group   2 Type C   : 12s5p4d2f1g contracted to 6s4p3d1f1g pattern {711111/2111/211/2/1}
 Group   3 Type F   : 12s5p4d2f1g contracted to 6s4p3d1f1g pattern {711111/2111/211/2/1}
 Group   4 Type H   : 5s2p1d contracted to 3s1p1d pattern {311/2/1}

Atom   0O    basis set group =>   1
Atom   1C    basis set group =>   2
Atom   2C    basis set group =>   2
Atom   3F    basis set group =>   3
Atom   4F    basis set group =>   3
Atom   5F    basis set group =>   3
Atom   6H    basis set group =>   4
Atom   7H    basis set group =>   4
Atom   8C    basis set group =>   2
Atom   9F    basis set group =>   3
Atom  10F    basis set group =>   3
Atom  11C    basis set group =>   2
Atom  12F    basis set group =>   3
Atom  13F    basis set group =>   3
Atom  14H    basis set group =>   4
------------------------------------------------------------------------------
                             ORCA STARTUP CALCULATIONS
                           -- RI-GTO INTEGRALS CHOSEN --
------------------------------------------------------------------------------
------------------------------------------------------------------------------
                   ___                                                        
                  /   \      - P O W E R E D   B Y -                         
                 /     \                                                     
                 |  |  |   _    _      __       _____    __    __             
                 |  |  |  | |  | |    /  \     |  _  \  |  |  /  |          
                  \  \/   | |  | |   /    \    | | | |  |  | /  /          
                 / \  \   | |__| |  /  /\  \   | |_| |  |  |/  /          
                |  |  |   |  __  | /  /__\  \  |    /   |      \           
                |  |  |   | |  | | |   __   |  |    \   |  |\   \          
                \     /   | |  | | |  |  |  |  | |\  \  |  | \   \       
                 \___/    |_|  |_| |__|  |__|  |_| \__\ |__|  \__/        
                                                                              
                      - O R C A' S   B I G   F R I E N D -                    
                                      &                                       
                       - I N T E G R A L  F E E D E R -                       
                                                                              
 v1 FN, 2020, v2 2021, v3 2022-2024                                           
------------------------------------------------------------------------------


----------------------
SHARK INTEGRAL PACKAGE
----------------------

Number of atoms                             ...     15
Number of basis functions                   ...    255
Number of shells                            ...    153
Maximum angular momentum                    ...      2
Integral batch strategy                     ... SHARK/LIBINT Hybrid
RI-J (if used) integral strategy            ... SPLIT-RIJ (Revised 2003 algorithm where possible)
Printlevel                                  ...      1
Contraction scheme used                     ... PARTIAL GENERAL contraction
Prescreening option                         ... SCHWARTZ
   Thresh                                   ... 2.500e-11
   Tcut                                     ... 2.500e-12
   Tpresel                                  ... 2.500e-12 
Coulomb Range Separation                    ... NOT USED
Exchange Range Separation                   ... NOT USED
Multipole approximations                    ... NOT USED
Finite Nucleus Model                        ... NOT USED
CABS basis                                  ... NOT available
Auxiliary Coulomb fitting basis             ... AVAILABLE
   # of basis functions in Aux-J            ...    621
   # of shells in Aux-J                     ...    195
   Maximum angular momentum in Aux-J        ...      4
Auxiliary J/K fitting basis                 ... NOT available
Auxiliary Correlation fitting basis         ... NOT available
Auxiliary 'external' fitting basis          ... NOT available

Checking pre-screening integrals            ... done (  0.0 sec) Dimension = 153
Save PGC pre-screening integrals            ... done (  0.0 sec) Dimension = 153
Calculate PGC overlap integrals             ... done (  0.0 sec) Dimension = 81
Calculating pre-screening integrals (ORCA)  ... done (  0.1 sec) Dimension = 81
Shell pair information
Shell pair cut-off parameter TPreSel        ...   2.5e-12
Total number of shell pairs                 ...     11781
Shell pairs after pre-screening             ...      6246
Total number of primitive shell pairs       ...     16881
Primitive shell pairs kept                  ...      8279
          la=0 lb=0:   2567 shell pairs
          la=1 lb=0:   2229 shell pairs
          la=1 lb=1:    341 shell pairs
          la=2 lb=0:    780 shell pairs
          la=2 lb=1:    270 shell pairs
          la=2 lb=2:     59 shell pairs

Checking whether 4 symmetric matrices of dimension 255 fit in memory
:Max Core in MB      =   4096.00
 MB in use           =      9.99
 MB left             =   4086.01
 MB needed           =      1.00
 Data fit in memory  = YES
Calculating RI/J V-Matrix + Cholesky decomp.... done (  0.0 sec)
Calculating Nuclear repulsion               ... done (  0.0 sec) ENN=    839.220725019868 Eh

Diagonalization of the overlap matrix:
Smallest eigenvalue                        ... 3.218e-03
Time for diagonalization                   ...    0.016 sec
Threshold for overlap eigenvalues          ... 1.000e-07
Number of eigenvalues below threshold      ... 0
Time for construction of square roots      ...    0.005 sec
Total time needed                          ...    0.021 sec

-------------------
DFT GRID GENERATION
-------------------

General Integration Accuracy     IntAcc      ... 4.388
Radial Grid Type                 RadialGrid  ... OptM3 with GC (2021)
Angular Grid (max. ang.)         AngularGrid ... 4 (Lebedev-302)
Angular grid pruning method      GridPruning ... 4 (adaptive)
Weight generation scheme         WeightScheme... mBecke (2022)
Basis function cutoff            BFCut       ... 1.0000e-11
Integration weight cutoff        WCut        ... 1.0000e-14
Partially contracted basis set               ... off
Rotationally invariant grid construction     ... off
Angular grids for H and He will be reduced by one unit

Total number of grid points                  ...    82618
Total number of batches                      ...     1299
Average number of points per batch           ...       63
Average number of grid points per atom       ...     5508

---------------------
SHARK GRID GENERATION
---------------------

General Integration Accuracy     IntAcc      ... 4.388
Radial Grid Type                 RadialGrid  ... OptM3 with GC (2021)
Angular Grid (max. ang.)         AngularGrid ... 4 (Lebedev-302)
Angular grid pruning method      GridPruning ... 4 (adaptive)
Weight generation scheme         WeightScheme... mBecke (2022)
Basis function cutoff            BFCut       ... 1.0000e-11
Integration weight cutoff        WCut        ... 1.0000e-14
Partially contracted basis set               ... off
Rotationally invariant grid construction     ... off
Angular grids for H and He will be reduced by one unit
Steep s-basis detected: some atoms will have their radial
                        grid points doubled.

Total number of grid points                  ...   156550
Total number of batches                      ...     2453
Average number of points per batch           ...       63
Average number of grid points per atom       ...    10437

--------------------
COSX GRID GENERATION
--------------------

GRIDX 1
-------
General Integration Accuracy     IntAcc      ... 3.816
Radial Grid Type                 RadialGrid  ... OptM3 with GC (2021)
Angular Grid (max. ang.)         AngularGrid ... 1 (Lebedev-50)
Angular grid pruning method      GridPruning ... 4 (adaptive)
Weight generation scheme         WeightScheme... mBecke (2022)
Basis function cutoff            BFCut       ... 1.0000e-11
Integration weight cutoff        WCut        ... 1.0000e-14
Partially contracted basis set               ... on
Rotationally invariant grid construction     ... off
Angular grids for H and He will be reduced by one unit

Total number of grid points                  ...    10426
Total number of batches                      ...       90
Average number of points per batch           ...      115
Average number of grid points per atom       ...      695
UseSFitting                                  ... on

GRIDX 2
-------
General Integration Accuracy     IntAcc      ... 4.020
Radial Grid Type                 RadialGrid  ... OptM3 with GC (2021)
Angular Grid (max. ang.)         AngularGrid ... 2 (Lebedev-110)
Angular grid pruning method      GridPruning ... 4 (adaptive)
Weight generation scheme         WeightScheme... mBecke (2022)
Basis function cutoff            BFCut       ... 1.0000e-11
Integration weight cutoff        WCut        ... 1.0000e-14
Partially contracted basis set               ... on
Rotationally invariant grid construction     ... off
Angular grids for H and He will be reduced by one unit

Total number of grid points                  ...    24210
Total number of batches                      ...      197
Average number of points per batch           ...      122
Average number of grid points per atom       ...     1614
UseSFitting                                  ... on

GRIDX 3
-------
General Integration Accuracy     IntAcc      ... 4.338
Radial Grid Type                 RadialGrid  ... OptM3 with GC (2021)
Angular Grid (max. ang.)         AngularGrid ... 3 (Lebedev-194)
Angular grid pruning method      GridPruning ... 4 (adaptive)
Weight generation scheme         WeightScheme... mBecke (2022)
Basis function cutoff            BFCut       ... 1.0000e-11
Integration weight cutoff        WCut        ... 1.0000e-14
Partially contracted basis set               ... on
Rotationally invariant grid construction     ... off
Angular grids for H and He will be reduced by one unit

Total number of grid points                  ...    53633
Total number of batches                      ...      425
Average number of points per batch           ...      126
Average number of grid points per atom       ...     3576
UseSFitting                                  ... on
Grids setup in   4.2 sec
Initializing property integral containers    ... done (  0.0 sec)

SHARK setup successfully completed in   4.6 seconds

Maximum memory used throughout the entire STARTUP-calculation: 58.8 MB
-------------------------------------------------------------------------------
                                 ORCA GUESS
                   Start orbitals & Density for SCF / CASSCF
-------------------------------------------------------------------------------

------------
SCF SETTINGS
------------
Hamiltonian:
 Density Functional     Method          .... DFT(GTOs)
 Exchange Functional    Exchange        .... B88
   X-Alpha parameter    XAlpha          ....  0.666667
   Becke's b parameter  XBeta           ....  0.004200
 Correlation Functional Correlation     .... LYP
 LDA part of GGA corr.  LDAOpt          .... VWN-5
 Gradients option       PostSCFGGA      .... off
 Hybrid DFT is turned on
   Fraction HF Exchange ScalHFX         ....  0.200000
   Scaling of DF-GGA-X  ScalDFX         ....  0.720000
   Scaling of DF-GGA-C  ScalDFC         ....  0.810000
   Scaling of DF-LDA-C  ScalLDAC        ....  1.000000
   Perturbative correction              ....  0.000000
   NL short-range parameter             ....  4.800000
 RI-approximation to the Coulomb term is turned on
   Number of AuxJ basis functions       .... 621
   RIJ-COSX (HFX calculated with COS-X)).... on


General Settings:
 Integral files         IntName         .... TFTFE_C1
 Hartree-Fock type      HFTyp           .... RHF
 Total Charge           Charge          ....    0
 Multiplicity           Mult            ....    1
 Number of Electrons    NEL             ....   98
 Basis Dimension        Dim             ....  183
 Nuclear Repulsion      ENuc            ....    839.2207250199 Eh

Convergence Acceleration:
 AO-DIIS                CNVDIIS         .... on
   Start iteration      DIISMaxIt       ....    12
   Startup error        DIISStart       ....  0.200000
   # of expansion vecs  DIISMaxEq       ....     5
   Bias factor          DIISBfac        ....   1.050
   Max. coefficient     DIISMaxC        ....  10.000
 MO-DIIS                CNVKDIIS        .... off
 Trust-Rad. Augm. Hess. CNVTRAH         .... auto
   Auto Start mean grad. ratio tolernc. ....  1.125000
   Auto Start start iteration           ....    50
   Auto Start num. interpolation iter.  ....    10
   Max. Number of Micro iterations      ....    24
   Max. Number of Macro iterations      .... Maxiter - #DIIS iter
   Number of Davidson start vectors     ....     2
   Converg. threshold    (grad. norm)   ....   1.000e-05
   Grad. Scal. Fac. for Micro threshold ....   0.100
   Minimum threshold for Micro iter.    ....   1.000e-02
   NR start threshold (gradient norm)   ....   1.000e-04
   Initial trust radius                 ....   0.400
   Minimum AH scaling param. (alpha)    ....   1.000
   Maximum AH scaling param. (alpha)    .... 1000.000
   Quad. conv. algorithm                .... NR
   White noise on init. David. guess    .... on
   Maximum white noise                  ....   0.010
   Pseudo random numbers                .... off
   Inactive MOs                         .... canonical
   Orbital update algorithm             .... Taylor
   Preconditioner                       .... Diag
   Full preconditioner red. dimension   ....   250
 SOSCF                 CNVSOSCF           .... on
   Start iteration     SOSCFMaxIt         ....   150
   Startup grad/error  SOSCFStart         ....  0.003300
   Hessian update      SOSCFHessUp        .... L-BFGS
   Autom. constraints  SOSCFAutoConstrain .... off
 Level Shifting         CNVShift        .... on
   Level shift para.    LevelShift      ....    0.2500
   Turn off err/grad.   ShiftErr        ....    0.0010
 Zerner damping         CNVZerner       .... off
 Static damping         CNVDamp         .... on
   Fraction old density DampFac         ....    0.7000
   Max. Damping (<1)    DampMax         ....    0.9800
   Min. Damping (>=0)   DampMin         ....    0.0000
   Turn off err/grad.   DampErr         ....    0.1000

SCF Procedure:
 Maximum # iterations   MaxIter         ....   125
 SCF integral mode      SCFMode         .... Direct
   Integral package                     .... SHARK and LIBINT hybrid scheme
 Reset frequency        DirectResetFreq ....    20
 Integral Threshold     Thresh          ....  2.500e-11 Eh
 Primitive CutOff       TCut            ....  2.500e-12 Eh

Convergence Tolerance:
 Convergence Check Mode ConvCheckMode   .... Total+1el-Energy
 Convergence forced     ConvForced      .... 0
 Energy Change          TolE            ....  1.000e-08 Eh
 1-El. energy change                    ....  1.000e-05 Eh
 Orbital Gradient       TolG            ....  1.000e-05
 Orbital Rotation angle TolX            ....  1.000e-05
 DIIS Error             TolErr          ....  5.000e-07

------------------------------
INITIAL GUESS: MODEL POTENTIAL
------------------------------
Loading Hartree-Fock densities                     ... done
Calculating cut-offs                               ... done
Initializing the effective Hamiltonian             ... done
Setting up the integral package (SHARK)            ... done
Starting the Coulomb interaction                   ... done (   0.2 sec)
Making the grid                                    ... done (   0.2 sec)
Mapping shells                                     ... done
Starting the XC term evaluation                    ... done (   0.2 sec)
  promolecular density results
     # of electrons  =     97.999353274
     EX              =   -100.046421026
     EC              =     -3.639891929
     EX+EC           =   -103.686312955
Transforming the Hamiltonian                       ... done (   0.0 sec)
Diagonalizing the Hamiltonian                      ... done (   0.0 sec)
Back transforming the eigenvectors                 ... done (   0.0 sec)
Now organizing SCF variables                       ... done
                      ------------------
                      INITIAL GUESS DONE (   0.6 sec)
                      ------------------
             **** ENERGY FILE WAS UPDATED (TFTFE_C1.en.tmp) ****
Finished Guess after   0.7 sec
Maximum memory used throughout the entire GUESS-calculation: 15.7 MB

-------------------------------------------------------------------------------------------
                                      ORCA LEAN-SCF
                              memory conserving SCF solver
-------------------------------------------------------------------------------------------

----------------------------------------D-I-I-S--------------------------------------------
Iteration    Energy (Eh)           Delta-E    RMSDP     MaxDP     DIISErr   Damp  Time(sec)
-------------------------------------------------------------------------------------------
               ***  Starting incremental Fock matrix formation  ***
    1    -927.7964890645135938     0.00e+00  2.47e-03  6.80e-02  2.20e-01  0.700   4.8
    2    -927.9017024867447390    -1.05e-01  1.37e-03  3.79e-02  8.60e-02  0.700   2.4
                               ***Turning on AO-DIIS***
    3    -927.9369241077223478    -3.52e-02  3.97e-04  1.02e-02  2.03e-02  0.700   2.3
    4    -927.9602999931408931    -2.34e-02  6.50e-04  1.39e-02  1.18e-02  0.000   2.7
                              *** Initializing SOSCF ***
---------------------------------------S-O-S-C-F--------------------------------------
Iteration    Energy (Eh)           Delta-E    RMSDP     MaxDP     MaxGrad    Time(sec)
--------------------------------------------------------------------------------------
    5    -928.0139499605351148    -5.36e-02  1.30e-04  2.97e-03  2.86e-03     2.9
               *** Restarting incremental Fock matrix formation ***
    6    -928.0139761728711392    -2.62e-05  4.97e-05  8.28e-04  2.98e-04     5.6
    7    -928.0139764678029906    -2.95e-07  2.38e-05  4.61e-04  2.65e-04     3.6
    8    -928.0139809720348012    -4.50e-06  7.29e-06  1.62e-04  4.38e-05     3.4
    9    -928.0139810177330446    -4.57e-08  3.18e-06  9.50e-05  3.31e-05     3.2
   10    -928.0139810876124784    -6.99e-08  1.76e-06  3.28e-05  1.36e-05     3.2
   11    -928.0139810876443107    -3.18e-11  8.40e-07  2.35e-05  8.32e-06     3.0
                 **** Energy Check signals convergence ****

               *****************************************************
               *                     SUCCESS                       *
               *           SCF CONVERGED AFTER  11 CYCLES          *
               *****************************************************

Recomputing exchange energy using gridx3       ... done (    9.033 sec)
Old exchange energy                            :    -20.103352378 Eh
New exchange energy                            :    -20.103354572 Eh
Exchange energy change after final integration :     -0.000002194 Eh
Total energy after final integration           :   -928.013983281 Eh
             **** ENERGY FILE WAS UPDATED (TFTFE_C1.en.tmp) ****

----------------
TOTAL SCF ENERGY
----------------

Total Energy       :       -928.01398328114931 Eh          -25252.54430 eV

Components:
Nuclear Repulsion  :        839.22072501986815 Eh           22836.35691 eV
Electronic Energy  :      -1767.23470610731715 Eh          -48088.90115 eV
One Electron Energy:      -2956.77213437731189 Eh          -80457.86017 eV
Two Electron Energy:       1189.53742826999473 Eh           32368.95903 eV

Virial components:
Potential Energy   :      -1851.76114915115431 Eh          -50388.98259 eV
Kinetic Energy     :        923.74716587000512 Eh           25136.43830 eV
Virial Ratio       :          2.00461903166666

DFT components:
N(Alpha)           :       48.999999943770 electrons
N(Beta)            :       48.999999943770 electrons
N(Total)           :       97.999999887540 electrons
E(X)               :      -80.044075641551 Eh       
E(C)               :       -4.258234146278 Eh       
E(XC)              :      -84.302309787829 Eh       

---------------
SCF CONVERGENCE
---------------

  Last Energy change         ...    3.1832e-11  Tolerance :   1.0000e-08
  Last MAX-Density change    ...    2.3527e-05  Tolerance :   1.0000e-07
  Last RMS-Density change    ...    8.3985e-07  Tolerance :   5.0000e-09
  Last DIIS Error            ...    2.8592e-03  Tolerance :   5.0000e-07
  Last Orbital Gradient      ...    8.3246e-06  Tolerance :   1.0000e-05
  Last Orbital Rotation      ...    5.8682e-06  Tolerance :   1.0000e-05


----------------
ORBITAL ENERGIES
----------------

  NO   OCC          E(Eh)            E(eV) 
   0   2.0000     -24.744243      -673.3251 
   1   2.0000     -24.743071      -673.2932 
   2   2.0000     -24.737273      -673.1354 
   3   2.0000     -24.731539      -672.9794 
   4   2.0000     -24.730250      -672.9443 
   5   2.0000     -24.729156      -672.9145 
   6   2.0000     -24.725366      -672.8114 
   7   2.0000     -19.204396      -522.5782 
   8   2.0000     -10.439555      -284.0747 
   9   2.0000     -10.430654      -283.8325 
  10   2.0000     -10.378644      -282.4173 
  11   2.0000     -10.281693      -279.7791 
  12   2.0000      -1.315438       -35.7949 
  13   2.0000      -1.307253       -35.5722 
  14   2.0000      -1.275597       -34.7108 
  15   2.0000      -1.238180       -33.6926 
  16   2.0000      -1.230210       -33.4757 
  17   2.0000      -1.226780       -33.3824 
  18   2.0000      -1.216845       -33.1120 
  19   2.0000      -1.086052       -29.5530 
  20   2.0000      -0.819376       -22.2964 
  21   2.0000      -0.767151       -20.8752 
  22   2.0000      -0.684684       -18.6312 
  23   2.0000      -0.667001       -18.1500 
  24   2.0000      -0.611860       -16.6496 
  25   2.0000      -0.607224       -16.5234 
  26   2.0000      -0.602067       -16.3831 
  27   2.0000      -0.594471       -16.1764 
  28   2.0000      -0.582725       -15.8567 
  29   2.0000      -0.559526       -15.2255 
  30   2.0000      -0.556975       -15.1561 
  31   2.0000      -0.552966       -15.0470 
  32   2.0000      -0.499570       -13.5940 
  33   2.0000      -0.481306       -13.0970 
  34   2.0000      -0.470791       -12.8109 
  35   2.0000      -0.466496       -12.6940 
  36   2.0000      -0.463490       -12.6122 
  37   2.0000      -0.446906       -12.1609 
  38   2.0000      -0.440628       -11.9901 
  39   2.0000      -0.431855       -11.7514 
  40   2.0000      -0.430992       -11.7279 
  41   2.0000      -0.422553       -11.4983 
  42   2.0000      -0.419486       -11.4148 
  43   2.0000      -0.416390       -11.3305 
  44   2.0000      -0.409026       -11.1302 
  45   2.0000      -0.407852       -11.0982 
  46   2.0000      -0.376790       -10.2530 
  47   2.0000      -0.366193        -9.9646 
  48   2.0000      -0.330690        -8.9985 
  49   0.0000       0.039526         1.0756 
  50   0.0000       0.058017         1.5787 
  51   0.0000       0.068280         1.8580 
  52   0.0000       0.083916         2.2835 
  53   0.0000       0.098030         2.6675 
  54   0.0000       0.115550         3.1443 
  55   0.0000       0.167460         4.5568 
  56   0.0000       0.185215         5.0400 
  57   0.0000       0.194411         5.2902 
  58   0.0000       0.199593         5.4312 
  59   0.0000       0.214609         5.8398 
*Only the first 10 virtual orbitals were printed.

                    ********************************
                    * MULLIKEN POPULATION ANALYSIS *
                    ********************************

-----------------------
MULLIKEN ATOMIC CHARGES
-----------------------
   0 O :   -0.326148
   1 C :    0.123943
   2 C :    0.448947
   3 F :   -0.162792
   4 F :   -0.165375
   5 F :   -0.159957
   6 H :    0.050457
   7 H :    0.053449
   8 C :    0.377965
   9 F :   -0.174117
  10 F :   -0.168527
  11 C :    0.436316
  12 F :   -0.181332
  13 F :   -0.183033
  14 H :    0.030206
Sum of atomic charges:   -0.0000000

--------------------------------
MULLIKEN REDUCED ORBITAL CHARGES
--------------------------------
  0 O s       :     3.784840  s :     3.784840
      pz      :     1.313066  p :     4.526036
      px      :     1.425527
      py      :     1.787443
      dz2     :     0.006019  d :     0.015272
      dxz     :     0.002271
      dyz     :     0.001833
      dx2y2   :     0.002643
      dxy     :     0.002506

  1 C s       :     3.034668  s :     3.034668
      pz      :     0.963114  p :     2.744792
      px      :     0.782060
      py      :     0.999619
      dz2     :     0.019238  d :     0.096596
      dxz     :     0.015990
      dyz     :     0.014168
      dx2y2   :     0.019508
      dxy     :     0.027693

  2 C s       :     2.906733  s :     2.906733
      pz      :     0.912066  p :     2.347564
      px      :     0.688006
      py      :     0.747492
      dz2     :     0.056645  d :     0.296756
      dxz     :     0.046522
      dyz     :     0.060433
      dx2y2   :     0.061934
      dxy     :     0.071222

  3 F s       :     3.897134  s :     3.897134
      pz      :     1.683813  p :     5.259511
      px      :     1.870571
      py      :     1.705127
      dz2     :     0.001176  d :     0.006147
      dxz     :     0.000792
      dyz     :     0.002534
      dx2y2   :     0.000877
      dxy     :     0.000768

  4 F s       :     3.897998  s :     3.897998
      pz      :     1.872526  p :     5.261272
      px      :     1.564914
      py      :     1.823832
      dz2     :     0.000858  d :     0.006106
      dxz     :     0.001274
      dyz     :     0.000370
      dx2y2   :     0.001714
      dxy     :     0.001889

  5 F s       :     3.897297  s :     3.897297
      pz      :     1.898930  p :     5.256498
      px      :     1.697872
      py      :     1.659697
      dz2     :     0.000931  d :     0.006162
      dxz     :     0.000596
      dyz     :     0.000711
      dx2y2   :     0.001194
      dxy     :     0.002730

  6 H s       :     0.922118  s :     0.922118
      pz      :     0.005122  p :     0.027425
      px      :     0.008556
      py      :     0.013746

  7 H s       :     0.916780  s :     0.916780
      pz      :     0.011285  p :     0.029771
      px      :     0.006195
      py      :     0.012290

  8 C s       :     2.952000  s :     2.952000
      pz      :     0.781976  p :     2.396714
      px      :     0.908057
      py      :     0.706681
      dz2     :     0.061332  d :     0.273322
      dxz     :     0.040698
      dyz     :     0.060484
      dx2y2   :     0.057770
      dxy     :     0.053038

  9 F s       :     3.901856  s :     3.901856
      pz      :     1.824257  p :     5.266243
      px      :     1.698818
      py      :     1.743168
      dz2     :     0.000767  d :     0.006018
      dxz     :     0.001235
      dyz     :     0.001109
      dx2y2   :     0.001002
      dxy     :     0.001906

 10 F s       :     3.904432  s :     3.904432
      pz      :     1.866124  p :     5.257993
      px      :     1.870545
      py      :     1.521324
      dz2     :     0.000832  d :     0.006102
      dxz     :     0.000208
      dyz     :     0.001562
      dx2y2   :     0.002124
      dxy     :     0.001377

 11 C s       :     2.966281  s :     2.966281
      pz      :     0.657102  p :     2.399076
      px      :     0.850719
      py      :     0.891255
      dz2     :     0.053948  d :     0.198327
      dxz     :     0.043520
      dyz     :     0.040227
      dx2y2   :     0.035371
      dxy     :     0.025260

 12 F s       :     3.903222  s :     3.903222
      pz      :     1.826493  p :     5.272124
      px      :     1.703356
      py      :     1.742275
      dz2     :     0.000732  d :     0.005987
      dxz     :     0.001199
      dyz     :     0.001042
      dx2y2   :     0.001111
      dxy     :     0.001904

 13 F s       :     3.903232  s :     3.903232
      pz      :     1.479188  p :     5.273785
      px      :     1.886518
      py      :     1.908080
      dz2     :     0.003279  d :     0.006017
      dxz     :     0.001343
      dyz     :     0.001263
      dx2y2   :     0.000080
      dxy     :     0.000052

 14 H s       :     0.943860  s :     0.943860
      pz      :     0.003907  p :     0.025934
      px      :     0.004620
      py      :     0.017406



                     *******************************
                     * LOEWDIN POPULATION ANALYSIS *
                     *******************************

----------------------
LOEWDIN ATOMIC CHARGES
----------------------
   0 O :    0.006931
   1 C :   -0.029081
   2 C :   -0.154610
   3 F :    0.044192
   4 F :    0.043975
   5 F :    0.045967
   6 H :    0.034304
   7 H :    0.030236
   8 C :   -0.141935
   9 F :    0.037071
  10 F :    0.045606
  11 C :   -0.040228
  12 F :    0.027554
  13 F :    0.028585
  14 H :    0.021432

-------------------------------
LOEWDIN REDUCED ORBITAL CHARGES
-------------------------------
  0 O s       :     3.426094  s :     3.426094
      pz      :     1.350714  p :     4.539752
      px      :     1.443833
      py      :     1.745205
      dz2     :     0.011863  d :     0.027222
      dxz     :     0.004712
      dyz     :     0.002537
      dx2y2   :     0.004234
      dxy     :     0.003877

  1 C s       :     2.827219  s :     2.827219
      pz      :     1.022579  p :     2.939613
      px      :     0.857939
      py      :     1.059096
      dz2     :     0.054823  d :     0.262250
      dxz     :     0.039101
      dyz     :     0.044139
      dx2y2   :     0.047393
      dxy     :     0.076795

  2 C s       :     2.849091  s :     2.849091
      pz      :     0.970782  p :     2.616577
      px      :     0.802949
      py      :     0.842846
      dz2     :     0.137179  d :     0.688942
      dxz     :     0.096080
      dyz     :     0.146486
      dx2y2   :     0.137013
      dxy     :     0.172184

  3 F s       :     3.692849  s :     3.692849
      pz      :     1.692518  p :     5.254549
      px      :     1.852287
      py      :     1.709744
      dz2     :     0.001466  d :     0.008410
      dxz     :     0.000920
      dyz     :     0.003926
      dx2y2   :     0.001168
      dxy     :     0.000931

  4 F s       :     3.693250  s :     3.693250
      pz      :     1.851828  p :     5.254437
      px      :     1.590237
      py      :     1.812372
      dz2     :     0.001223  d :     0.008338
      dxz     :     0.001688
      dyz     :     0.000456
      dx2y2   :     0.002320
      dxy     :     0.002651

  5 F s       :     3.693450  s :     3.693450
      pz      :     1.876175  p :     5.252166
      px      :     1.703962
      py      :     1.672029
      dz2     :     0.001443  d :     0.008416
      dxz     :     0.000702
      dyz     :     0.000845
      dx2y2   :     0.001224
      dxy     :     0.004203

  6 H s       :     0.885585  s :     0.885585
      pz      :     0.015801  p :     0.080111
      px      :     0.026702
      py      :     0.037608

  7 H s       :     0.885053  s :     0.885053
      pz      :     0.032550  p :     0.084711
      px      :     0.018219
      py      :     0.033942

  8 C s       :     2.855956  s :     2.855956
      pz      :     0.865382  p :     2.655100
      px      :     0.978724
      py      :     0.810993
      dz2     :     0.152686  d :     0.630879
      dxz     :     0.085666
      dyz     :     0.132418
      dx2y2   :     0.138346
      dxy     :     0.121764

  9 F s       :     3.694924  s :     3.694924
      pz      :     1.813638  p :     5.259658
      px      :     1.703201
      py      :     1.742819
      dz2     :     0.000937  d :     0.008347
      dxz     :     0.001784
      dyz     :     0.001579
      dx2y2   :     0.001191
      dxy     :     0.002856

 10 F s       :     3.692792  s :     3.692792
      pz      :     1.848441  p :     5.253140
      px      :     1.851122
      py      :     1.553577
      dz2     :     0.001126  d :     0.008461
      dxz     :     0.000255
      dyz     :     0.002094
      dx2y2   :     0.003143
      dxy     :     0.001843

 11 C s       :     2.851972  s :     2.851972
      pz      :     0.773200  p :     2.691637
      px      :     0.939237
      py      :     0.979200
      dz2     :     0.136809  d :     0.496619
      dxz     :     0.100883
      dyz     :     0.093280
      dx2y2   :     0.102751
      dxy     :     0.062896

 12 F s       :     3.697147  s :     3.697147
      pz      :     1.812144  p :     5.267176
      px      :     1.705129
      py      :     1.749903
      dz2     :     0.000862  d :     0.008122
      dxz     :     0.001623
      dyz     :     0.001446
      dx2y2   :     0.001391
      dxy     :     0.002801

 13 F s       :     3.695581  s :     3.695581
      pz      :     1.514581  p :     5.267668
      px      :     1.863562
      py      :     1.889526
      dz2     :     0.004848  d :     0.008166
      dxz     :     0.001645
      dyz     :     0.001528
      dx2y2   :     0.000090
      dxy     :     0.000056

 14 H s       :     0.900386  s :     0.900386
      pz      :     0.012530  p :     0.078182
      px      :     0.014131
      py      :     0.051520



                      *****************************
                      * MAYER POPULATION ANALYSIS *
                      *****************************

  NA   - Mulliken gross atomic population
  ZA   - Total nuclear charge
  QA   - Mulliken gross atomic charge
  VA   - Mayer's total valence
  BVA  - Mayer's bonded valence
  FA   - Mayer's free valence

  ATOM       NA         ZA         QA         VA         BVA        FA
  0 O      8.3261     8.0000    -0.3261     2.1590     2.1590    -0.0000
  1 C      5.8761     6.0000     0.1239     3.9859     3.9859     0.0000
  2 C      5.5511     6.0000     0.4489     4.5714     4.5714    -0.0000
  3 F      9.1628     9.0000    -0.1628     1.2365     1.2365    -0.0000
  4 F      9.1654     9.0000    -0.1654     1.2354     1.2354     0.0000
  5 F      9.1600     9.0000    -0.1600     1.2407     1.2407     0.0000
  6 H      0.9495     1.0000     0.0505     0.9840     0.9840     0.0000
  7 H      0.9466     1.0000     0.0534     1.0078     1.0078     0.0000
  8 C      5.6220     6.0000     0.3780     4.3738     4.3738     0.0000
  9 F      9.1741     9.0000    -0.1741     1.2161     1.2161    -0.0000
 10 F      9.1685     9.0000    -0.1685     1.2267     1.2267    -0.0000
 11 C      5.5637     6.0000     0.4363     4.2177     4.2177     0.0000
 12 F      9.1813     9.0000    -0.1813     1.2085     1.2085     0.0000
 13 F      9.1830     9.0000    -0.1830     1.2068     1.2068    -0.0000
 14 H      0.9698     1.0000     0.0302     0.9725     0.9725     0.0000

  Mayer bond orders larger than 0.100000
B(  0-O ,  1-C ) :   0.9753 B(  0-O ,  8-C ) :   1.0953 B(  1-C ,  2-C ) :   1.0239 
B(  1-C ,  6-H ) :   0.9380 B(  1-C ,  7-H ) :   0.9258 B(  2-C ,  3-F ) :   1.1691 
B(  2-C ,  4-F ) :   1.1498 B(  2-C ,  5-F ) :   1.1727 B(  8-C ,  9-F ) :   1.1119 
B(  8-C , 10-F ) :   1.1159 B(  8-C , 11-C ) :   0.9444 B( 11-C , 12-F ) :   1.1442 
B( 11-C , 13-F ) :   1.1292 B( 11-C , 14-H ) :   0.9341 

-------
TIMINGS
-------

Total SCF time: 0 days 0 hours 0 min 48 sec 

Total time                  ....      48.765 sec
Sum of individual times     ....      46.170 sec  ( 94.7%)

SCF preparation             ....       0.115 sec  (  0.2%)
Fock matrix formation       ....      45.929 sec  ( 94.2%)
  Startup                   ....       0.002 sec  (  0.0% of F)
  Split-RI-J                ....       3.531 sec  (  7.7% of F)
  Chain of spheres X        ....      37.998 sec  ( 82.7% of F)
  XC integration            ....       6.819 sec  ( 14.8% of F)
    XC Preparation          ....       0.000 sec  (  0.0% of XC)
    Basis function eval.    ....       2.963 sec  ( 43.5% of XC)
    Density eval.           ....       1.557 sec  ( 22.8% of XC)
    XC-Functional eval.     ....       0.420 sec  (  6.2% of XC)
    XC-Potential eval.      ....       1.514 sec  ( 22.2% of XC)
Diagonalization             ....       0.000 sec  (  0.0%)
Density matrix formation    ....       0.018 sec  (  0.0%)
Total Energy calculation    ....       0.003 sec  (  0.0%)
Population analysis         ....       0.007 sec  (  0.0%)
Orbital Transformation      ....       0.014 sec  (  0.0%)
Orbital Orthonormalization  ....       0.000 sec  (  0.0%)
DIIS solution               ....       0.048 sec  (  0.1%)
SOSCF solution              ....       0.037 sec  (  0.1%)
Finished LeanSCF after  48.8 sec

Maximum memory used throughout the entire LEANSCF-calculation: 26.7 MB

------------------------------------------------------------------------------
                         ORCA PROPERTY INTEGRAL CALCULATIONS
------------------------------------------------------------------------------

GBWName                                   ... TFTFE_C1.gbw
Number of atoms                           ...     15
Number of basis functions                 ...    255
Max core memory                           ...   4096 MB

Dipole integrals                          ... YES
Quadrupole integrals                      ...  NO
Linear momentum integrals                 ...  NO
Angular momentum integrals                ...  NO
Higher moments length integrals           ...  NO
Higher moments velocity integrals         ...  NO
Kinetic energy integrals                  ...  NO
GIAO right hand sides                     ...  NO
GIAO dipole derivative integrals          ...  NO
SOC integrals                             ...  NO
EPR diamagnetic integrals (GIAO)          ...  NO
EPR gauge integrals                       ...  NO
Field gradient integrals                  ...  NO (   0 nuclei)
Spin-dipole/Fermi contact integrals       ...  NO (   0 nuclei)
Contact density integrals                 ...  NO (   0 nuclei)
Nucleus-orbit integrals                   ...  NO (   0 nuclei)
Geometric perturbations                   ...  NO (  15 nuclei)

Choice of electric origin   ... Center of mass
Position of electric origin ... ( -0.7211, -0.1283, -2.8700) 
Choice of magnetic origin   ... GIAO
Position of magnetic origin ... (  0.0000,  0.0000,  0.0000) 

Calculating integrals                     ... Electric Dipole (Length)     done (  0.0 sec)

Property integrals calculated in   0.0 sec

Maximum memory used throughout the entire PROPINT-calculation: 15.9 MB

-------------------------   --------------------
FINAL SINGLE POINT ENERGY      -928.013983281149
-------------------------   --------------------

------------------------------------------------------------------------------
                         ORCA SCF GRADIENT CALCULATION
------------------------------------------------------------------------------

Nuc. rep. gradient        (SHARK) ... done (  0.0 sec)
HCore & Overlap gradient  (SHARK) ... done (  0.2 sec)
Split-RIJ-J gradient      (SHARK) ... done (  1.6 sec)
done ( 25.5 sec)
XC gradient                       ... done (  4.4 sec)

------------------
CARTESIAN GRADIENT
------------------

   1   O   :   -0.015552351   -0.005255826    0.025458609
   2   C   :    0.004120578    0.003872294    0.002491423
   3   C   :   -0.009719026   -0.000243628   -0.001069454
   4   F   :    0.000329206   -0.003031405    0.001818864
   5   F   :   -0.001719845    0.003799379    0.004033417
   6   F   :    0.003409525    0.004068153   -0.000460584
   7   H   :    0.004391714    0.001772238   -0.004409213
   8   H   :   -0.000806763   -0.003361635   -0.000374008
   9   C   :    0.021069302   -0.008961397   -0.040002041
  10   F   :   -0.003808357    0.002034148    0.010743788
  11   F   :   -0.004801193    0.000328456    0.009520918
  12   C   :   -0.018657687   -0.001046349   -0.000299574
  13   F   :    0.008210270   -0.000444614   -0.003826305
  14   F   :    0.010621310    0.000542427   -0.000941177
  15   H   :    0.002913317    0.005927759   -0.002684665

Difference to translation invariance:
           :   -0.0000000000    0.0000000002    0.0000000000

Difference to rotation invariance:
           :   -0.0000274302    0.0002683254   -0.0000337654

Norm of the Cartesian gradient     ...    0.0644106184
RMS gradient                       ...    0.0096017681
MAX gradient                       ...    0.0400020407

-------
TIMINGS
-------

Total SCF gradient time     ....       31.655 sec

Densities                   ....       0.001 sec  (  0.0%)
One electron gradient       ....       0.240 sec  (  0.8%)
RI-J Coulomb gradient       ....       1.590 sec  (  5.0%)
COSX gradient               ....      25.467 sec  ( 80.5%)
XC gradient                 ....       4.358 sec  ( 13.8%)

Maximum memory used throughout the entire SCFGRAD-calculation: 33.9 MB
------------------------------------------------------------------------------
                         ORCA GEOMETRY RELAXATION STEP
------------------------------------------------------------------------------

Reading the OPT-File                    .... done
Getting information on internals        .... done
Copying old internal coords+grads       .... done
Making the new internal coordinates     .... (2022 redundants) done
Validating the new internal coordinates .... (2022 redundants) done
Calculating the B-matrix                .... done
Calculating the G,G- and P matrices     .... done
Transforming gradient to internals      .... done
Projecting the internal gradient        .... done
Number of atoms                         ....  15
Number of internal coordinates          ....  57
Current Energy                          ....  -928.013983281 Eh
Current gradient norm                   ....     0.064410618 Eh/bohr
Maximum allowed component of the step   ....  0.300
Current trust radius                    ....  0.300
Evaluating the initial hessian          ....  (Almloef) done
Projecting the Hessian                  .... done
Forming the augmented Hessian           .... done
Diagonalizing the augmented Hessian     .... done
Last element of RFO vector              ....  0.981375758
Lowest eigenvalues of augmented Hessian:
 -0.009468658  0.011087320  0.011712816  0.017907148  0.019527136
Length of the computed step             ....  0.195743520
The final length of the internal step   ....  0.195743520
Converting the step to Cartesian space:
 Initial RMS(Int)=    0.0259268626
Transforming coordinates:
 Iter   0:  RMS(Cart)=    0.0947932091 RMS(Int)=    0.8300983177
 Iter   5:  RMS(Cart)=    0.0000000807 RMS(Int)=    0.0000000574
done
Storing new coordinates                 .... done

                                .--------------------.
          ----------------------|Geometry convergence|-------------------------
          Item                value                   Tolerance       Converged
          ---------------------------------------------------------------------
          RMS gradient        0.0078544863            0.0001000000      NO
          MAX gradient        0.0292922531            0.0003000000      NO
          RMS step            0.0259268626            0.0020000000      NO
          MAX step            0.0774811293            0.0040000000      NO
          -------------------------------------------------------------------------
          ........................................................
          Max(Bonds)      0.0308      Max(Angles)    3.21
          Max(Dihed)        4.44      Max(Improp)    0.00
          ---------------------------------------------------------------------

The optimization has not yet converged - more geometry cycles are needed


    ---------------------------------------------------------------------------
                         Redundant Internal Coordinates
                            (Angstroem and degrees)

        Definition                    Value    dE/dq     Step     New-Value
    ----------------------------------------------------------------------------
     1. B(C   1,O   0)                1.4338  0.002708 -0.0029    1.4308   
     2. B(C   2,C   1)                1.5237  0.005634 -0.0076    1.5161   
     3. B(F   3,C   2)                1.3508  0.003405 -0.0030    1.3479   
     4. B(F   4,C   2)                1.3522  0.003976 -0.0035    1.3488   
     5. B(F   5,C   2)                1.3517  0.005264 -0.0046    1.3471   
     6. B(H   6,C   1)                1.0954 -0.004075  0.0059    1.1014   
     7. B(H   7,C   1)                1.0953 -0.001755  0.0026    1.0978   
     8. B(C   8,O   0)                1.4239  0.029292 -0.0308    1.3932   
     9. B(F   9,C   8)                1.3568 -0.003478  0.0031    1.3599   
    10. B(F  10,C   8)                1.3566 -0.001336  0.0012    1.3578   
    11. B(C  11,C   8)                1.5309  0.003655 -0.0051    1.5259   
    12. B(F  12,C  11)                1.3616  0.003473 -0.0031    1.3585   
    13. B(F  13,C  11)                1.3598  0.002481 -0.0022    1.3576   
    14. B(H  14,C  11)                1.0934 -0.005623  0.0082    1.1016   
    15. A(C   1,O   0,C   8)          112.30 -0.013444    1.92    114.22   
    16. A(O   0,C   1,H   7)          111.72 -0.003712    0.48    112.21   
    17. A(C   2,C   1,H   6)          109.85  0.001779   -0.55    109.30   
    18. A(C   2,C   1,H   7)          108.28 -0.001279   -0.10    108.19   
    19. A(H   6,C   1,H   7)          107.88 -0.001453    0.98    108.87   
    20. A(O   0,C   1,H   6)          108.32 -0.006961    1.27    109.59   
    21. A(O   0,C   1,C   2)          110.73  0.011410   -2.04    108.69   
    22. A(F   4,C   2,F   5)          107.50 -0.001357    0.28    107.78   
    23. A(C   1,C   2,F   4)          110.73  0.008597   -1.28    109.45   
    24. A(F   3,C   2,F   5)          108.01  0.000065    0.09    108.10   
    25. A(C   1,C   2,F   5)          111.25 -0.002315    0.44    111.69   
    26. A(C   1,C   2,F   3)          111.54 -0.003201    0.41    111.95   
    27. A(F   3,C   2,F   4)          107.64 -0.001905    0.08    107.72   
    28. A(O   0,C   8,F  10)          108.30 -0.017502    3.19    111.49   
    29. A(O   0,C   8,F   9)          107.13 -0.017024    2.77    109.90   
    30. A(F  10,C   8,C  11)          111.13  0.003064   -0.81    110.33   
    31. A(F   9,C   8,C  11)          111.03  0.006559   -1.67    109.36   
    32. A(O   0,C   8,C  11)          111.77  0.022303   -3.21    108.55   
    33. A(F   9,C   8,F  10)          107.27  0.000559    0.08    107.36   
    34. A(F  13,C  11,H  14)          108.55 -0.006344    0.93    109.48   
    35. A(F  12,C  11,H  14)          108.14 -0.007721    1.15    109.29   
    36. A(C   8,C  11,H  14)          111.53  0.001411   -0.36    111.17   
    37. A(F  12,C  11,F  13)          106.26 -0.013437    1.97    108.23   
    38. A(C   8,C  11,F  13)          111.21  0.014912   -2.11    109.10   
    39. A(C   8,C  11,F  12)          110.94  0.009650   -1.35    109.59   
    40. D(C   2,C   1,O   0,C   8)   -148.06  0.000193    0.31   -147.75   
    41. D(H   7,C   1,O   0,C   8)    -27.28  0.003914   -0.89    -28.16   
    42. D(H   6,C   1,O   0,C   8)     91.42 -0.004509    1.42     92.84   
    43. D(F   3,C   2,C   1,H   7)    171.20 -0.000968    1.63    172.84   
    44. D(F   3,C   2,C   1,H   6)     53.62  0.000522    0.81     54.43   
    45. D(F   4,C   2,C   1,O   0)    174.17 -0.000419    1.36    175.53   
    46. D(F   4,C   2,C   1,H   7)     51.36 -0.002219    2.12     53.48   
    47. D(F   3,C   2,C   1,O   0)    -65.99  0.000832    0.87    -65.12   
    48. D(F   4,C   2,C   1,H   6)    -66.23 -0.000728    1.30    -64.93   
    49. D(C  11,C   8,O   0,C   1)    175.21 -0.002943    3.53    178.74   
    50. D(F  10,C   8,O   0,C   1)     52.46 -0.009263    4.44     56.90   
    51. D(F   9,C   8,O   0,C   1)    -62.96  0.007538    1.33    -61.63   
    52. D(F  12,C  11,C   8,F  10)     59.83 -0.004227    0.39     60.22   
    53. D(F  12,C  11,C   8,F   9)    179.14  0.002815   -1.13    178.01   
    54. D(F  12,C  11,C   8,O   0)    -61.30  0.000590   -0.90    -62.20   
    55. D(F  13,C  11,C   8,F  10)    -58.22 -0.003201    0.15    -58.07   
    56. D(F  13,C  11,C   8,F   9)     61.10  0.003842   -1.37     59.73   
    57. D(F  13,C  11,C   8,O   0)   -179.34  0.001616   -1.14   -180.48   
    ----------------------------------------------------------------------------

Geometry step timings:
Preparation and reading OPT file:      0.000 s ( 1.155 %)
Internal coordinates            :      0.000 s ( 2.342 %)
B/P matrices and projection     :      0.001 s (37.809 %)
Hessian update/contruction      :      0.000 s (10.953 %)
Making the step                 :      0.001 s (23.524 %)
Converting the step to Cartesian:      0.000 s ( 8.215 %)
Storing new data                :      0.000 s ( 1.848 %)
Checking convergence            :      0.000 s ( 1.023 %)
Final printing                  :      0.000 s (13.032 %)
Total time                      :      0.003 s

Time for energy+gradient        :     85.970 s
Time for complete geometry iter :     86.023 s

         *************************************************************
         *                GEOMETRY OPTIMIZATION CYCLE   2            *
         *************************************************************
---------------------------------
CARTESIAN COORDINATES (ANGSTROEM)
---------------------------------
  O     -0.331145   -0.562721   -1.364369
  C     -1.638993   -0.166618   -0.940271
  C     -1.537114    0.440223    0.445299
  F     -1.144617   -0.464623    1.363952
  F     -2.745064    0.908530    0.820453
  F     -0.669323    1.470187    0.475017
  H     -2.298015   -1.048309   -0.904107
  H     -2.083281    0.581223   -1.609995
  C     -0.120983   -0.462447   -2.737925
  F     -0.981103   -1.283804   -3.397422
  F     -0.347188    0.799812   -3.184069
  C      1.313897   -0.883335   -3.041554
  F      2.177210   -0.038251   -2.420256
  F      1.527343   -0.799600   -4.379628
  H      1.506305   -1.913707   -2.702775

----------------------------
CARTESIAN COORDINATES (A.U.)
----------------------------
  NO LB      ZA    FRAG     MASS         X           Y           Z
   0 O     8.0000    0    15.999   -0.625773   -1.063389   -2.578284
   1 C     6.0000    0    12.011   -3.097248   -0.314862   -1.776854
   2 C     6.0000    0    12.011   -2.904725    0.831900    0.841492
   3 F     9.0000    0    18.998   -2.163013   -0.878010    2.577496
   4 F     9.0000    0    18.998   -5.187419    1.716873    1.550431
   5 F     9.0000    0    18.998   -1.264837    2.778251    0.897652
   6 H     1.0000    0     1.008   -4.342619   -1.981017   -1.708514
   7 H     1.0000    0     1.008   -3.936831    1.098353   -3.042450
   8 C     6.0000    0    12.011   -0.228624   -0.873898   -5.173928
   9 F     9.0000    0    18.998   -1.854015   -2.426038   -6.420198
  10 F     9.0000    0    18.998   -0.656090    1.511426   -6.017018
  11 C     6.0000    0    12.011    2.482906   -1.669261   -5.747703
  12 F     9.0000    0    18.998    4.114331   -0.072284   -4.573622
  13 F     9.0000    0    18.998    2.886259   -1.511025   -8.276297
  14 H     1.0000    0     1.008    2.846503   -3.616383   -5.107505

--------------------------------
INTERNAL COORDINATES (ANGSTROEM)
--------------------------------
 O      0   0   0     0.000000000000     0.00000000     0.00000000
 C      1   0   0     1.430812474649     0.00000000     0.00000000
 C      2   1   0     1.516059485347   108.67976864     0.00000000
 F      3   2   1     1.347858716082   111.94752842   294.88266738
 F      3   2   1     1.348775353566   109.45094378   175.52528640
 F      3   2   1     1.347134537603   111.68380594    56.25837362
 H      2   1   3     1.101361583226   109.57600817   240.61567208
 H      2   1   3     1.097811356646   112.19042323   119.58269135
 C      1   2   3     1.393154490173   114.21722916   212.24074892
 F      9   1   2     1.359915760586   109.83109726   298.27052282
 F      9   1   2     1.357759404310   111.45358018    57.00083523
 C      9   1   2     1.525850022357   108.55386877   178.73556464
 F     12   9   1     1.358486795538   109.57304650   297.81966764
[...]
     25       0.046381   0.016019   0.021137   0.001475   0.031356  -0.013208
     26       0.112052   0.077965   0.020880  -0.048964   0.105407  -0.017542
     27      -0.009293  -0.002069   0.003508  -0.015720   0.011639   0.001774
     28      -0.014026  -0.001755  -0.000082  -0.014152   0.004500   0.003381
     29      -0.007910  -0.002105  -0.001409   0.000593  -0.006457   0.001064
     30      -0.006091  -0.005526  -0.000575  -0.015794   0.013029  -0.000093
     31       0.004194   0.005361  -0.000861   0.008790  -0.006603   0.000483
     32      -0.014094  -0.010722  -0.001405  -0.006605  -0.003909   0.001909
     33      -0.025534  -0.026555  -0.038744  -0.169184   0.158266  -0.002046
     34       0.014112   0.010608  -0.107386   0.002512   0.000009   0.001304
     35       0.020695   0.015045  -0.076347   0.082658  -0.071081   0.001729
     36       0.000709   0.002288   0.011879   0.021058  -0.019563   0.000559
     37       0.001533   0.000188  -0.004470   0.004753  -0.006412   0.000283
     38      -0.002283  -0.000955   0.019106  -0.001625   0.001587  -0.000244
     39       0.007324   0.005755  -0.005380   0.016738  -0.013159  -0.000299
     40      -0.007568  -0.005173   0.020181  -0.009574   0.006756   0.000167
     41      -0.010791  -0.007073  -0.007162  -0.013242   0.008441   0.000972
     42      -0.002391   0.044632   0.276900   0.559904  -0.469492   0.005814
     43      -0.064727  -0.023450   0.780579   0.048455  -0.039558  -0.008501
     44      -0.064906  -0.058982   0.540435  -0.328469   0.288574  -0.012565
                 42         43         44    
      0       0.001014  -0.000185   0.000443
      1      -0.000119  -0.000017   0.000513
      2      -0.001556   0.000310   0.000084
      3       0.047504  -0.000909  -0.032809
      4      -0.025306  -0.000081  -0.090521
      5       0.040275  -0.000367  -0.007801
      6       0.000930  -0.000119  -0.000853
      7      -0.000658   0.000089  -0.002702
      8      -0.001683  -0.000070  -0.000097
      9      -0.000113   0.000018   0.000037
     10       0.000235  -0.000037   0.000530
     11      -0.000215   0.000018  -0.000253
     12      -0.000430   0.000017   0.000082
     13       0.000167  -0.000010   0.000259
     14       0.000236   0.000009   0.000008
     15      -0.000161   0.000017   0.000327
     16      -0.000013  -0.000003   0.000437
     17      -0.000178   0.000015   0.000408
     18      -0.429713   0.009003   0.515982
     19      -0.417748   0.008360   0.487843
     20      -0.228669   0.004480   0.285832
     21      -0.147220   0.001721  -0.129417
     22       0.716595  -0.006844   0.591708
     23      -0.220559   0.001799  -0.194512
     24       0.000804   0.001463  -0.000524
     25       0.000329   0.000802  -0.000133
     26       0.002064  -0.001606  -0.000067
     27      -0.000330  -0.000307   0.000265
     28      -0.000142  -0.000340   0.000060
     29      -0.000062   0.000105  -0.000083
     30      -0.000288   0.000402   0.000002
     31       0.000205  -0.000376   0.000062
     32      -0.000257   0.000363   0.000003
     33      -0.000702  -0.036608   0.000218
     34       0.000735   0.052602  -0.000395
     35      -0.000724  -0.056966   0.000349
     36       0.000041   0.000483  -0.000002
     37       0.000018   0.000181   0.000024
     38      -0.000014   0.000602  -0.000002
     39       0.000061   0.000178  -0.000006
     40      -0.000049  -0.000791   0.000016
     41      -0.000095  -0.000059   0.000009
     42       0.005458   0.408008  -0.002110
     43      -0.008171  -0.611752   0.003261
     44       0.009162   0.672089  -0.003585


-----------
IR SPECTRUM
-----------

 Mode   freq       eps      Int      T**2         TX        TY        TZ
       cm**-1   L/(mol*cm) km/mol    a.u.
----------------------------------------------------------------------------
  6:     13.28   0.000318    1.61  0.007481  (-0.022634 -0.082570 -0.012283)
  7:     39.71   0.000030    0.15  0.000240  ( 0.014365 -0.000226 -0.005759)
  8:     59.66   0.000081    0.41  0.000424  (-0.003377 -0.010455 -0.017409)
  9:     78.71   0.000406    2.05  0.001610  (-0.038918 -0.003371  0.009188)
 10:    134.63   0.000431    2.18  0.001000  ( 0.006032  0.030749 -0.004207)
 11:    191.59   0.000117    0.59  0.000191  ( 0.004948 -0.012631  0.002566)
 12:    224.98   0.001146    5.79  0.001589  (-0.019837  0.033171  0.009775)
 13:    243.30   0.000208    1.05  0.000267  ( 0.000107  0.006231 -0.015091)
 14:    306.93   0.000367    1.85  0.000373  (-0.004588 -0.007840 -0.017034)
 15:    352.68   0.000362    1.83  0.000320  ( 0.000422  0.017698  0.002604)
 16:    390.90   0.000479    2.42  0.000382  (-0.000780  0.013599  0.014027)
 17:    435.07   0.000656    3.32  0.000471  ( 0.021427 -0.002992 -0.001663)
 18:    514.27   0.000765    3.87  0.000464  ( 0.009929 -0.010088  0.016247)
 19:    527.72   0.000566    2.86  0.000334  (-0.000168 -0.018019  0.003126)
 20:    541.48   0.001135    5.74  0.000654  ( 0.004550  0.009116 -0.023460)
 21:    580.23   0.002399   12.13  0.001290  ( 0.023542 -0.004352 -0.026782)
 22:    588.16   0.001938    9.79  0.001028  (-0.005861 -0.004127 -0.031253)
 23:    646.11   0.004316   21.81  0.002085  (-0.014843  0.003592  0.043029)
 24:    766.30   0.010695   54.05  0.004355  (-0.055415  0.035697 -0.003178)
 25:    843.00   0.010047   50.77  0.003719  ( 0.038958 -0.023017  0.040887)
 26:    867.98   0.000374    1.89  0.000135  ( 0.002034 -0.010347  0.004830)
 27:    967.58   0.006998   35.36  0.002257  (-0.020323 -0.042440  0.006540)
 28:   1049.16   0.004867   24.59  0.001448  (-0.027989  0.025495 -0.003755)
 29:   1117.44   0.023628  119.41  0.006599  (-0.036394 -0.064088  0.034159)
 30:   1140.38   0.038888  196.52  0.010642  (-0.080935 -0.046263  0.044169)
 31:   1146.12   0.018805   95.03  0.005120  ( 0.020302  0.064606  0.023109)
 32:   1175.11   0.081685  412.80  0.021692  ( 0.015073 -0.109661 -0.097158)
 33:   1190.98   0.038708  195.61  0.010142  (-0.100473  0.005428 -0.004258)
 34:   1224.49   0.089408  451.83  0.022786  (-0.034465  0.000360  0.146962)
 35:   1289.79   0.020657  104.39  0.004998  ( 0.053144 -0.044069  0.015216)
 36:   1304.54   0.015505   78.36  0.003709  (-0.053163 -0.005522 -0.029194)
 37:   1310.52   0.031053  156.93  0.007394  (-0.004835  0.084510  0.015136)
 38:   1362.18   0.003318   16.77  0.000760  (-0.012406 -0.020172 -0.014115)
 39:   1418.77   0.004024   20.33  0.000885  (-0.002609 -0.007056  0.028783)
 40:   1446.25   0.006573   33.22  0.001418  (-0.009189  0.009283  0.035324)
 41:   1464.56   0.001188    6.01  0.000253  ( 0.003554 -0.004133  0.014951)
 42:   3071.40   0.002579   13.03  0.000262  ( 0.012688 -0.008199 -0.005815)
 43:   3088.53   0.004967   25.10  0.000502  (-0.004772  0.014011 -0.016815)
 44:   3136.14   0.000757    3.83  0.000075  (-0.002067 -0.008349  0.001170)

* The epsilon (eps) is given for a Dirac delta lineshape.
** The dipole moment derivative (T) already includes vibrational overlap.

The first frequency considered to be a vibration is 6
The total number of vibrations considered is 39


--------------------------
THERMOCHEMISTRY AT 298.15K
--------------------------

Temperature         ...   298.15 K
Pressure            ...     1.00 atm
Total Mass          ...   200.05 AMU
Quasi RRHO          ...     True
Cut-Off Frequency   ...     1.00 cm^-1

Throughout the following assumptions are being made:
  (1) The electronic state is orbitally nondegenerate
  (2) There are no thermally accessible electronically excited states
  (3) Hindered rotations indicated by low frequency modes are not
      treated as such but are treated as vibrations and this may
      cause some error
  (4) All equations used are the standard statistical mechanics
      equations for an ideal gas
  (5) All vibrations are strictly harmonic

freq.      13.28  E(vib)   ...       0.57 
freq.      39.71  E(vib)   ...       0.54 
freq.      59.66  E(vib)   ...       0.51 
freq.      78.71  E(vib)   ...       0.49 
freq.     134.63  E(vib)   ...       0.42 
freq.     191.59  E(vib)   ...       0.36 
freq.     224.98  E(vib)   ...       0.33 
freq.     243.30  E(vib)   ...       0.31 
freq.     306.93  E(vib)   ...       0.26 
freq.     352.68  E(vib)   ...       0.22 
freq.     390.90  E(vib)   ...       0.20 
freq.     435.07  E(vib)   ...       0.17 
freq.     514.27  E(vib)   ...       0.13 
freq.     527.72  E(vib)   ...       0.13 
freq.     541.48  E(vib)   ...       0.12 
freq.     580.23  E(vib)   ...       0.11 
freq.     588.16  E(vib)   ...       0.10 
freq.     646.11  E(vib)   ...       0.09 
freq.     766.30  E(vib)   ...       0.06 
freq.     843.00  E(vib)   ...       0.04 
freq.     867.98  E(vib)   ...       0.04 
freq.     967.58  E(vib)   ...       0.03 
freq.    1049.16  E(vib)   ...       0.02 
freq.    1117.44  E(vib)   ...       0.01 
freq.    1140.38  E(vib)   ...       0.01 
freq.    1146.12  E(vib)   ...       0.01 
freq.    1175.11  E(vib)   ...       0.01 
freq.    1190.98  E(vib)   ...       0.01 
freq.    1224.49  E(vib)   ...       0.01 
freq.    1289.79  E(vib)   ...       0.01 
freq.    1304.54  E(vib)   ...       0.01 
freq.    1310.52  E(vib)   ...       0.01 
freq.    1362.18  E(vib)   ...       0.01 
freq.    1418.77  E(vib)   ...       0.00 
freq.    1446.25  E(vib)   ...       0.00 
freq.    1464.56  E(vib)   ...       0.00 
freq.    3071.40  E(vib)   ...       0.00 
freq.    3088.53  E(vib)   ...       0.00 
freq.    3136.14  E(vib)   ...       0.00 

------------
INNER ENERGY
------------

The inner energy is: U= E(el) + E(ZPE) + E(vib) + E(rot) + E(trans)
    E(el)   - is the total energy from the electronic structure calculation
              = E(kin-el) + E(nuc-el) + E(el-el) + E(nuc-nuc)
    E(ZPE)  - the the zero temperature vibrational energy from the frequency calculation
    E(vib)  - the the finite temperature correction to E(ZPE) due to population
              of excited vibrational states
    E(rot)  - is the rotational thermal energy
    E(trans)- is the translational thermal energy

Summary of contributions to the inner energy U:
Electronic energy                ...   -928.02158435 Eh
Zero point energy                ...      0.08258506 Eh      51.82 kcal/mol
Thermal vibrational correction   ...      0.00854349 Eh       5.36 kcal/mol
Thermal rotational correction    ...      0.00141627 Eh       0.89 kcal/mol
Thermal translational correction ...      0.00141627 Eh       0.89 kcal/mol
-----------------------------------------------------------------------
Total thermal energy                   -927.92762325 Eh


Summary of corrections to the electronic energy:
(perhaps to be used in another calculation)
Total thermal correction                  0.01137603 Eh       7.14 kcal/mol
Non-thermal (ZPE) correction              0.08258506 Eh      51.82 kcal/mol
-----------------------------------------------------------------------
Total correction                          0.09396110 Eh      58.96 kcal/mol


--------
ENTHALPY
--------

The enthalpy is H = U + kB*T
                kB is Boltzmann's constant
Total thermal energy              ...   -927.92762325 Eh 
Thermal Enthalpy correction       ...      0.00094421 Eh       0.59 kcal/mol
-----------------------------------------------------------------------
Total Enthalpy                    ...   -927.92667904 Eh


Note: Only C1 symmetry has been detected, increase convergence thresholds 
      if your molecule has a higher symmetry. Symmetry factor of 1.0 is   
      used for the rotational entropy correction. 
 

Note: Rotational entropy computed according to Herzberg 
Infrared and Raman Spectra, Chapter V,1, Van Nostrand Reinhold, 1945 
Point Group:  C1, Symmetry Number:   1  
Rotational constants in cm-1:     0.063396     0.014953     0.014203 

Vibrational entropy computed according to the QRRHO of S. Grimme
Chem.Eur.J. 2012 18 9955 using a reference frequency of 100.0 cm-1


-------
ENTROPY
-------

The entropy contributions are T*S = T*(S(el)+S(vib)+S(rot)+S(trans))
     S(el)   - electronic entropy
     S(vib)  - vibrational entropy
     S(rot)  - rotational entropy
     S(trans)- translational entropy
The entropies will be listed as multiplied by the temperature to get
units of energy

Electronic entropy                ...      0.00000000 Eh      0.00 kcal/mol
Vibrational entropy               ...      0.01562957 Eh      9.81 kcal/mol
Rotational entropy                ...      0.01480553 Eh      9.29 kcal/mol
Translational entropy             ...      0.01985330 Eh     12.46 kcal/mol
-----------------------------------------------------------------------
Final entropy term                ...      0.05028840 Eh     31.56 kcal/mol

In case the symmetry of your molecule has not been determined correctly
or in case you have a reason to use a different symmetry number we print 
out the resulting rotational entropy values for sn=1,12:

 non-linear molecules -----------------------------------
|  sn= 1 | S(rot)=       0.01480553 Eh      9.29 kcal/mol|
|  sn= 2 | S(rot)=       0.01415107 Eh      8.88 kcal/mol|
|  sn= 3 | S(rot)=       0.01376824 Eh      8.64 kcal/mol|
|  sn= 4 | S(rot)=       0.01349661 Eh      8.47 kcal/mol|
|  sn= 5 | S(rot)=       0.01328593 Eh      8.34 kcal/mol|
|  sn= 6 | S(rot)=       0.01311378 Eh      8.23 kcal/mol|
|  sn= 7 | S(rot)=       0.01296823 Eh      8.14 kcal/mol|
|  sn= 8 | S(rot)=       0.01284216 Eh      8.06 kcal/mol|
|  sn= 9 | S(rot)=       0.01273095 Eh      7.99 kcal/mol|
|  sn=10 | S(rot)=       0.01263147 Eh      7.93 kcal/mol|
|  sn=11 | S(rot)=       0.01254148 Eh      7.87 kcal/mol|
|  sn=12 | S(rot)=       0.01245932 Eh      7.82 kcal/mol|
 linear molecules ---------------------------------------
|  Dinfh | S(rot)=       0.00934262 Eh      5.86 kcal/mol|
|  Cinfv | S(rot)=       0.00999707 Eh      6.27 kcal/mol|
 --------------------------------------------------------


-------------------
GIBBS FREE ENERGY
-------------------

The Gibbs free energy is G = H - T*S

Total enthalpy                    ...   -927.92667904 Eh 
Total entropy correction          ...     -0.05028840 Eh    -31.56 kcal/mol
-----------------------------------------------------------------------
Final Gibbs free energy         ...   -927.97696744 Eh

For completeness - the Gibbs free energy minus the electronic energy
G-E(el)                           ...      0.04461691 Eh     28.00 kcal/mol


Maximum memory used throughout the entire PROP-calculation: 65.4 MB

--------------------------------
SUGGESTED CITATIONS FOR THIS RUN
--------------------------------

Below you find a list of papers that are relevant to this ORCA run
We neither can nor want to force you to cite these papers, but we appreciate if you do
You receive ORCA, which is the product of decades of hard work by many enthusiastic individuals, for free
The only thing we kindly ask in return is that you cite our papers,
We deeply appreciate it, if you show your appreciation for ORCA by not just citing the generic ORCA reference.

Please note that relegating all ORCA citations to the supporting information does *not* help us.
SI sections are not indexed - citations you put there will not count into any citation statistics
But we need these citations in order to attract the funding resources that allow us to do what we are doing

Therefore, if you are a happy ORCA user, please consider citing a few of the papers listed below in the main body of your paper

In addition to the list printed below, the program has created the file TFTFE_C1.bibtex that contains the list in bibtex format
You can import this file easily into all common literature databanks and citation aid programs


List of essential papers. We consider these as the minimum necessary citations

  1. Neese, F.
     Software update: the ORCA program system, version 6.0
     WIRES Comput. Molec. Sci. 2025 15(1), e70019
     doi.org/10.1002/wcms.7019

List of papers to cite with high priority. The work reported in these papers was absolutely
necessary for this run to complete.
Our perspective: the developers of density functionals and basis sets usually get cited in chemistry papers
Good! But without the algorithms to do something with them, the functionals or basis sets would not do anything.
Hence, in our opinion, the algorithm design and method developments papers are equally worthy of getting cited

  1. Neese, F.
     An improvement of the resolution of the identity approximation for the formation of the Coulomb matrix
     J. Comp. Chem. 2003 24(14), 1740-1747
     doi.org/10.1002/jcc.10318
  2. Neese, F.; Wennmohs, F.; Hansen, A.; Becker, U.
     Efficient, approximate and parallel Hartree-Fock and hybrid DFT calculations. A 'chain-of-spheres' algorithm for the Hartree-Fock exchange
     Chem. Phys. 2009 356(1-3), 98-109
     doi.org/10.1016/j.chemphys.2008.10.036
  3. Bykov, D.; Petrenko, T.; Izsak, R.; Kossmann, S.; Becker, U.; Valeev, E.; Neese, F.
     Efficient implementation of the analytic second derivatives of Hartree-Fock and hybrid DFT energies: a detailed analysis of different approximations
     Molec. Phys. 2015 113 , 1961-1977
     doi.org/10.1080/00268976.2015.1025114
  4. Helmich-Paris, B.; de Souza, B.; Neese, F.; Izsák, R.
     An improved chain of spheres for exchange algorithm
     J. Chem. Phys. 2021 155(10), 104109
     doi.org/10.1063/5.0058766
  5. Neese, F.
     The SHARK Integral Generation and Digestion System
     J. Comp. Chem. 2022 44(3), 381
     doi.org/10.1002/jcc.26942

List of suggested additional citations. These are papers that are important in the 'surrounding' of 
of this run, or papers that preceded the highly important papers. If you like your results we are grateful for a citation.

  1. Izsak, R.; Neese, F.
     An overlap fitted chain of spheres exchange method
     J. Chem. Phys. 2011 135 , 144105
     doi.org/10.1063/1.3646921
  2. Izsak, R.; Hansen, A.; Neese, F.
     The resolution of identity and chain of spheres approximations for the LPNO-CCSD singles Fock term
     Molec. Phys. 2012 110 , 2413-2417
     doi.org/10.1080/00268976.2012.687466
  3. Neese, F.
     The ORCA program system
     WIRES Comput. Molec. Sci. 2012 2(1), 73-78
     doi.org/10.1002/wcms.81
  4. Izsak, R.; Neese, F.; Klopper, W.
     Robust fitting techniques in the chain of spheres approximation to the Fock exchange: The role of the complementary space
     J. Chem. Phys. 2013 139 , 
     doi.org/10.1063/1.4819264
  5. Neese, F.
     Software update: the ORCA program system, version 4.0
     WIRES Comput. Molec. Sci. 2018 8(1), 1-6
     doi.org/10.1002/wcms.1327
  6. Neese, F.; Wennmohs, F.; Becker, U.; Riplinger, C.
     The ORCA quantum chemistry program package
     J. Chem. Phys. 2020 152(22), 224108
     doi.org/10.1063/5.0004608
  7. Neese, F.
     Software update: The ORCA program system—Version 5.0
     WIRES Comput. Molec. Sci. 2022 12(1), e1606
     doi.org/10.1002/wcms.1606

List of optional additional citations

  1. Neese, F.
     Approximate second-order SCF convergence for spin unrestricted wavefunctions
     Chem. Phys. Lett. 2000 325(1-3), 93-98
     doi.org/10.1016/s0009-2614(00)00662-x

Timings for individual modules:

Sum of individual times          ...     2653.717 sec (=  44.229 min)
Startup calculation              ...      133.059 sec (=   2.218 min)   5.0 %
SCF iterations                   ...     1095.926 sec (=  18.265 min)  41.3 %
Property integrals               ...      125.548 sec (=   2.092 min)   4.7 %
SCF Response                     ...       97.979 sec (=   1.633 min)   3.7 %
Property calculations            ...      331.480 sec (=   5.525 min)  12.5 %
SCF Gradient evaluation          ...      869.623 sec (=  14.494 min)  32.8 %
Geometry relaxation              ...        0.101 sec (=   0.002 min)   0.0 %
                             ****ORCA TERMINATED NORMALLY****
TOTAL RUN TIME: 0 days 0 hours 44 minutes 15 seconds 462 msec
