
                                 *****************
                                 * O   R   C   A *
                                 *****************

                                            #,                                       
                                            ###                                      
                                            ####                                     
                                            #####                                    
                                            ######                                   
                                           ########,                                 
                                     ,,################,,,,,                         
                               ,,#################################,,                 
                          ,,##########################################,,             
                       ,#########################################, ''#####,          
                    ,#############################################,,   '####,        
                  ,##################################################,,,,####,       
                ,###########''''           ''''###############################       
              ,#####''   ,,,,##########,,,,          '''####'''          '####       
            ,##' ,,,,###########################,,,                        '##       
           ' ,,###''''                  '''############,,,                           
         ,,##''                                '''############,,,,        ,,,,,,###''
      ,#''                                            '''#######################'''  
     '                                                          ''''####''''         
             ,#######,   #######,   ,#######,      ##                                
            ,#'     '#,  ##    ##  ,#'     '#,    #''#        ,####,    ,#,          
            ##       ##  ##   ,#'  ##            #'  '#       #'       ,# #          
            ##       ##  #######   ##           ,######,      #####,      #          
            '#,     ,#'  ##    ##  '#,     ,#' ,#      #,     #,   #      #          
             '#######'   ##     ##  '#######'  #'      '#     '####' #    #          



                #########################################################
                #                        -***-                          #
                #          Department of theory and spectroscopy        #
                #                                                       #
                #                      Frank Neese                      #
                #                                                       #
                #     Directorship, Architecture, Infrastructure        #
                #                    SHARK, DRIVERS                     #
                #        Core code/Algorithms in most modules           #
                #                                                       #
                #        Max Planck Institute fuer Kohlenforschung      #
                #                Kaiser Wilhelm Platz 1                 #
                #                 D-45470 Muelheim/Ruhr                 #
                #                      Germany                          #
                #                                                       #
                #                  All rights reserved                  #
                #                        -***-                          #
                #########################################################


                         Program Version 6.1.1  -  RELEASE   -
                                (GIT: $487d211c$)
                          ($2025-11-21 10:33:24 +0100$)


 With contributions from (in alphabetic order):
[Max-Planck-Institut fuer Kohlenforschung]                               
  Daniel Aravena         : Magnetic Suceptibility                        
  Michael Atanasov       : Ab Initio Ligand Field Theory (pilot matlab implementation)
  Alexander A. Auer      : GIAO ZORA, VPT2 properties, NMR spectrum      
  Ute Becker             : All parallelization in ORCA, NUMFREQ, NUMCALC 
  Giovanni Bistoni       : ED, misc. LED, open-shell LED, HFLD           
  Dmytro Bykov           : pre 5.0 version of the SCF Hessian            
  Marcos Casanova-Páez   : Triplet and SCS-CIS(D). UHF-(DLPNO)-IP/EA/STEOM-CCSD. UHF-CVS-IP/STEOM-CCSD   
  Vijay G. Chilkuri      : MRCI spin determinant printing, contributions to CSF-ICE 
  Pauline Colinet        : FMM embedding                                 
  Dipayan Datta          : RHF DLPNO-CCSD density                        
  Achintya Kumar Dutta   : EOM-CC, STEOM-CC                              
  Nicolas Foglia         : Exact transition moments, OPA infrastructure, MCD improvements    
  Dmitry Ganyushin       : Spin-Orbit,Spin-Spin,Magnetic field MRCI      
  Miquel Garcia-Rates    : C-PCM and meta-GGA Hessian, CCSD/C-PCM, Gaussian charge scheme 
  Tiago L. C. Gouveia    : GS-ROHF, GS-ROCIS                             
  Yang Guo               : DLPNO-NEVPT2, F12-NEVPT2, CIM, IAO-localization        
  Andreas Hansen         : Spin unrestricted coupled pair/coupled cluster methods 
  Ingolf Harden          : AUTO-CI MPn and infrastructure                
  Benjamin Helmich-Paris : MC-RPA, TRAH-(SCF,CASSCF), AVAS, COSX integrals, SCF dyn. polar., MC-PDFT, srDFT 
  Lee Huntington         : MR-EOM, pCC                                   
  Robert Izsak           : Overlap fitted RIJCOSX, COSX-SCS-MP3, EOM     
  Riya Kayal             : Wick's Theorem for AUTO-CI, AUTO-CI UHF-CCSDT 
  Emily Kempfer          : AUTO-CI RHF CISDT and CCSDT, approximate NEVPT4
  Christian Kollmar      : KDIIS, OOCD, Brueckner-CCSD(T), CCSD density, CASPT2, CASPT2-K, improved NEVPT2 
  Axel Koslowski         : Symmetry handling                             
  Simone Kossmann        : meta-GGA functionals, TD-DFT gradient, OOMP2, (MP2 Hessian; deprecated post 5.0) 
  Lucas Lang             : DCDCAS, Hyperfine gauge corrections, ICE-SOC+SSC
  Marvin Lechner         : AUTO-CI (C++ implementation), FIC-MRCC        
  Spencer Leger          : CASSCF response                               
  Dagmar Lenk            : GEPOL surface, SMD, ORCA-2-JSON               
  Dimitrios Liakos       : Extrapolation schemes; Compound Job, Property file
  Dimitrios Manganas     : Further ROCIS development; embedding schemes. LFT, Crystal Embedding 
  Dimitrios Pantazis     : SARC Basis sets                               
  Anastasios Papadopoulos: AUTO-CI, single reference methods and gradients 
  Taras Petrenko         : pre 6.0 DFT Hessian and TD-DFT gradient,  ECA, NRVS 
  Petra Pikulova         : Analytic Raman intensities                    
  Peter Pinski           : DLPNO-MP2, DLPNO-MP2 Gradient                 
  Shashank Vittal Rao    : ES-AILFT, MagRelax                            
  Christoph Reimann      : Effective Core Potentials                     
  Marius Retegan         : Local ZFS, SOC                                
  Christoph Riplinger    : Optimizer, TS searches, QM/MM, DLPNO-CCSD(T), (RO)-DLPNO pert. Triples 
  Michael Roemelt        : Original ROCIS implementation, recursive CI coupling coefficients
  Masaaki Saitow         : Open-shell DLPNO-CCSD energy and density      
  Barbara Sandhoefer     : DKH picture change effects                    
  Yorick L. A. Schmerwitz: GMF and freeze-and-release deltaSCF, NEB S-IDPP initial path                    
  Kantharuban Sivalingam : CASSCF convergence/infrastructure, NEVPT2, NEVPT3, NEVPT4(SD), FIC-MRCI and CEPA variants
  Bernardo de Souza      : ESD, SOC TD-DFT                               
  Georgi L. Stoychev     : AutoAux, RI-MP2 NMR, DLPNO-MP2 response, X2C  
  Van Anh Tran           : RI-MP2 g-tensors                              
  Willem Van den Heuvel  : Paramagnetic NMR                              
  Zikuan Wang            : NOTCH, Electric field optimization            
  Frank Wennmohs         : Technical directorship and infrastructure     
  Hang Xu                : AUTO-CI-Response properties                   
                                                                         
[FACCTs GmbH]                                                            
  Markus Bursch, Nicolas Foglia, Miquel Garcia-Rates, Ingolf Harden, Hagen Neugebauer, Anastasios Papadopoulos, 
  Christoph Riplinger, Bernardo de Souza, Georgi L. Stoychev                                                    
                                                                 
  APM, various basis sets, CI-OPT, improved COSX, DLPNO-Multilevel,           
  DOCKER, DRACO, updates on ESD, Fragmentator, GOAT, IRC, LR-CPCM, L-BFGS, MBIS, meta-GGA TD-DFT gradient, ML-optimized integration grids, 
  MM, NACMEs, nearIR, NEB, NEB-TS, NL-DFT gradient (VV10), 2- and 3-layer-ONIOM, interface openCOSMO-RS, QMMM,   
  Crystal-QMMM, RESP, rigid body optimization, SF, symmetry and pop. for TD-DFT, various functionals, SOLVATOR                                   
                                                                         
[Other institutions]                                                     
  V. Asgeirsson          : NEB                                           
  Christoph Bannwarth    : sTDA-DFT, sTD-DFT, PBEh-3c, B97-3c, D3        
  Giovanni Bistoni       : ETS/NOCV, ADLD/ADEX, COVALED                  
  Martin Brehm           : Molecular dynamics                            
  Ronald Cardenas        : ETS/NOCV                                      
  Martina Colucci        : COVALED                                       
  Sebastian Ehlert       : rSCAN, r2SCAN, r2SCAN-3c, D4, dhf basis sets  
  Marvin Friede          : D4 for Fr, Ra, Ac-Lr                          
  Lars Goerigk           : TD-DFT with DH, B97 family of functionals     
  Stefan Grimme          : VdW corrections, initial TS optimization, DFT functionals, gCP, sTDA/sTD-DF 
  Waldemar Hujo          : DFT-NL                                        
  H. Jonsson             : NEB                                           
  Holger Kruse           : gCP                                           
  Marcel Mueller         : wB97X-3c, vDZP basis set                      
  Hagen Neugebauer       : wr2SCAN, Native XTB                           
  Gianluca Regni         : ADLD/ADEX                                     
  Tobias Risthaus        : pre 6.0 range-separated hybrid DFT and stability analysis
  Lukas Wittmann         : regularized MP2, r2SCAN double-hybrids, wr2SCAN        
                                                                         
We gratefully acknowledge several colleagues who have allowed us to      
interface, adapt or use parts of their codes:                            
  Ed Valeev, F. Pavosevic, A. Kumar             : LibInt (2-el integral package), F12 methods 
  Garnet Chan, S. Sharma, J. Yang, R. Olivares  : DMRG                   
  Ulf Ekstrom                                   : XCFun DFT Library      
  Mihaly Kallay                                 : mrcc  (arbitrary order and MRCC methods)
  Frank Weinhold                                : gennbo (NPA and NBO analysis)           
  Simon Mueller                                 : openCOSMO-RS                            
  Christopher J. Cramer and Donald G. Truhlar   : smd solvation model                     
  S Lehtola, MJT Oliveira, MAL Marques          : LibXC Library                           
  Liviu Ungur et al                             : ANISO software                          


 Your calculation uses the libint2 library for the computation of 2-el integrals
 For citations please refer to: http://libint.valeyev.net

 Your ORCA version has been built with support for libXC version: 7.0.0
 For citations please refer to: https://libxc.gitlab.io

 This ORCA versions uses:
   CBLAS   interface :  Fast vector & matrix operations
   LAPACKE interface :  Fast linear algebra routines
   SCALAPACK package :  Parallel linear algebra routines
   Shared memory     :  Shared parallel matrices
   BLAS/LAPACK       :  OpenBLAS 0.3.29  USE64BITINT DYNAMIC_ARCH NO_AFFINITY Cooperlake SINGLE_THREADED
        Core in use  :  Cooperlake
   Copyright (c) 2011-2014, The OpenBLAS Project


  ***********************************
  * Starting time: Sun Feb 22 20:32:43 2026
  * Host name:     Breado
  * Process ID:    20302
  * Working dir.:  /home/bread/other_data/B3LYP_aud-cc-pVTZ
  ***********************************

Warning: RI is on but no J-basis has been assigned. Assigning Def2/J (nothing to worry about!)
================================================================================

----- Orbital basis set information -----
Your calculation utilizes the basis: aug-cc-pVTZ 
    H, B-Ne : Obtained from the ccRepo (grant-hill.group.shef.ac.uk/ccrepo) Feb. 2017
              R. A. Kendall, T. H. Dunning, Jr., R. J. Harrison, J. Chem. Phys. 96, 6796 (1992)
         He : Obtained from the ccRepo (grant-hill.group.shef.ac.uk/ccrepo) Feb. 2017
              D. E. Woon, T. H. Dunning, Jr., J. Chem. Phys. 100, 2975 (1994)
  Li-Be, Na : Obtained from the ccRepo (grant-hill.group.shef.ac.uk/ccrepo) Feb. 2017
              B. P. Prascher, D. E. Woon, K. A. Peterson, T. H. Dunning, Jr., A. K. Wilson, Theor. Chem. Acc. 128, 69 (2011)
         Mg : Obtained from the Peterson Research Group Website (tyr0.chem.wsu.edu/~kipeters) Feb. 2017
              B. P. Prascher, D. E. Woon, K. A. Peterson, T. H. Dunning, Jr., A. K. Wilson, Theor. Chem. Acc. 128, 69 (2011)
      Al-Ar : Obtained from the ccRepo (grant-hill.group.shef.ac.uk/ccrepo) Feb. 2017
              D. E. Woon, T. H. Dunning, Jr., J. Chem. Phys. 98, 1358 (1993)
      Sc-Zn : Obtained from the ccRepo (grant-hill.group.shef.ac.uk/ccrepo) Feb. 2017
              N. B. Balabanov, K. A. Peterson, J. Chem. Phys. 123, 064107 (2005)
              N. B. Balabanov, K. A. Peterson, J. Chem. Phys. 125, 074110 (2006)
      Ga-Kr : Obtained from the ccRepo (grant-hill.group.shef.ac.uk/ccrepo) Feb. 2017
              A. K. Wilson, D. E. Woon, K. A. Peterson, T. H. Dunning, Jr., J. Chem. Phys. 110, 7667 (1999)
     Ag, Au : Obtained from the Peterson Research Group Website (tyr0.chem.wsu.edu/~kipeters) Feb. 2017
              K. A. Peterson, C. Puzzarini, Theor. Chem. Acc. 114, 283 (2005)

----- AuxJ basis set information -----
Your calculation utilizes the auxiliary basis: def2/J
   H-Rn: F. Weigend, Phys. Chem. Chem. Phys. 8, 1057 (2006).
   Fr-Lr: K. Eichkorn, F. Weigend, O. Treutler, R. Ahlrichs; Theor. Chem. Acc. 97, 119 (1997).

================================================================================
                                        WARNINGS
                       Please study these warnings very carefully!
================================================================================

WARNING: Old DensityContainer found on disk!
         Will remove this file - 
         If you want to keep old densities, please start your calculation with a different basename. 


WARNING: Geometry Optimization
  ===> : Switching off AutoStart
         For restart on a previous wavefunction, please use MOREAD

================================================================================
                                       INPUT FILE
================================================================================
NAME = HFE_347pcf2_anti.inp
|  1> # avogadro generated ORCA input file 
|  2> # Basic Mode
|  3> # 
|  4> ! B3LYP aug-cc-pVTZ OPT FREQ 
|  5> % FREQ TEMP 305, 320, 340 END
|  6> 
|  7> * xyz 0 1
|  8>    F        1.28530       -1.62240        0.56030
|  9>    F        1.38880       -0.59790       -1.37380
| 10>    F        2.29800        1.67070       -0.14090
| 11>    F        3.53230       -0.08800        0.20960
| 12>    F       -2.56250        0.28010        1.34490
| 13>    F       -3.46870       -0.64150       -0.41230
| 14>    F       -2.46550        1.29230       -0.58450
| 15>    O       -0.03940        0.17810        0.20870
| 16>    C        1.23030       -0.41010       -0.04230
| 17>    C       -1.11330       -0.61630       -0.27520
| 18>    C        2.32920        0.47050        0.48930
| 19>    C       -2.41470        0.08470        0.01630
| 20>    H       -1.10420       -1.59410        0.21820
| 21>    H       -1.01120       -0.76410       -1.35560
| 22>    H        2.25350        0.63630        1.56730
| 23> *
| 24> 
| 25> 
| 26>                          ****END OF INPUT****
================================================================================

                       *****************************
                       * Geometry Optimization Run *
                       *****************************

Geometry optimization settings:
Update method            Update   .... BFGS
Choice of coordinates    CoordSys .... (2022) Redundant Internals
Initial Hessian          InHess   .... Almloef's Model
Max. no of cycles        MaxIter  .... 50

Convergence Tolerances:
Energy Change            TolE     ....  5.0000e-06 Eh
Max. Gradient            TolMAXG  ....  3.0000e-04 Eh/bohr
RMS Gradient             TolRMSG  ....  1.0000e-04 Eh/bohr
Max. Displacement        TolMAXD  ....  4.0000e-03 bohr
RMS Displacement         TolRMSD  ....  2.0000e-03 bohr
Strict Convergence                .... False

------------------------------------------------------------------------------
                        ORCA OPTIMIZATION COORDINATE SETUP
------------------------------------------------------------------------------

The optimization will be done in redundant internal coordinates (2022)
Making redundant internal coordinates   ...  (2022 redundants) done
Evaluating the initial hessian          ...  (Almloef) done
Evaluating the coordinates              ...  done
Calculating the B-matrix                .... done
Calculating the G-matrix                .... done
The number of degrees of freedom        ....   57

    -----------------------------------------------------------------
                    Redundant Internal Coordinates


    -----------------------------------------------------------------
         Definition                    Initial Value    Approx d2E/dq
    -----------------------------------------------------------------
      1. B(C   8,F   1)                  1.3540         0.593501   
      2. B(C   8,O   7)                  1.4217         0.498154   
      3. B(C   8,F   0)                  1.3549         0.591461   
      4. B(C   9,O   7)                  1.4207         0.499848   
      5. B(C  10,F   3)                  1.3556         0.590035   
      6. B(C  10,C   8)                  1.5052         0.409204   
      7. B(C  10,F   2)                  1.3560         0.589235   
      8. B(C  11,F   6)                  1.3498         0.602802   
      9. B(C  11,F   5)                  1.3498         0.602686   
     10. B(C  11,C   9)                  1.5067         0.407024   
     11. B(C  11,F   4)                  1.3510         0.600049   
     12. B(H  12,C   9)                  1.0953         0.353194   
     13. B(H  13,C   9)                  1.0952         0.353245   
     14. B(H  14,C  10)                  1.0933         0.355761   
     15. A(C   8,O   7,C   9)          112.5571         0.396640   
     16. A(F   1,C   8,C  10)          110.0593         0.395722   
     17. A(F   1,C   8,O   7)          109.6064         0.407047   
     18. A(O   7,C   8,C  10)          110.3420         0.385457   
     19. A(F   0,C   8,C  10)          109.6787         0.395483   
     20. A(F   0,C   8,F   1)          107.9693         0.417803   
     21. A(F   0,C   8,O   7)          109.1426         0.406799   
     22. A(H  12,C   9,H  13)          108.8524         0.289084   
     23. A(C  11,C   9,H  13)          109.5217         0.327889   
     24. A(O   7,C   9,H  13)          109.9364         0.337200   
     25. A(C  11,C   9,H  12)          109.5961         0.327881   
     26. A(O   7,C   9,H  12)          109.8442         0.337192   
     27. A(O   7,C   9,C  11)          109.0777         0.385327   
     28. A(F   3,C  10,H  14)          109.1096         0.345669   
     29. A(F   2,C  10,H  14)          108.8104         0.345590   
     30. A(F   2,C  10,F   3)          106.8101         0.417087   
     31. A(F   3,C  10,C   8)          109.5141         0.395316   
     32. A(C   8,C  10,H  14)          112.7309         0.328563   
     33. A(F   2,C  10,C   8)          109.6878         0.395222   
     34. A(F   4,C  11,C   9)          110.6131         0.396113   
     35. A(F   5,C  11,F   6)          108.0963         0.420369   
     36. A(F   4,C  11,F   6)          107.7112         0.420040   
     37. A(F   4,C  11,F   5)          107.7371         0.420026   
     38. A(F   6,C  11,C   9)          111.2635         0.396432   
     39. A(F   5,C  11,C   9)          111.2676         0.396418   
     40. D(F   1,C   8,O   7,C   9)     58.6402         0.019614   
     41. D(F   0,C   8,O   7,C   9)    -59.4143         0.019614   
     42. D(C  10,C   8,O   7,C   9)    179.9982         0.019614   
     43. D(H  13,C   9,O   7,C   8)    -59.2366         0.019752   
     44. D(H  12,C   9,O   7,C   8)     60.5210         0.019752   
     45. D(C  11,C   9,O   7,C   8)   -179.3404         0.019752   
     46. D(F   2,C  10,C   8,F   0)    178.2766         0.013266   
     47. D(F   3,C  10,C   8,O   7)   -178.3733         0.013266   
     48. D(F   3,C  10,C   8,F   1)    -57.2848         0.013266   
     49. D(F   3,C  10,C   8,F   0)     61.3607         0.013266   
     50. D(F   2,C  10,C   8,O   7)    -61.4574         0.013266   
     51. D(F   2,C  10,C   8,F   1)     59.6311         0.013266   
     52. D(F   4,C  11,C   9,H  13)   -179.9158         0.013129   
     53. D(F   4,C  11,C   9,H  12)     60.7346         0.013129   
     54. D(F   4,C  11,C   9,O   7)    -59.5568         0.013129   
     55. D(F   5,C  11,C   9,H  13)     60.3697         0.013129   
     56. D(F   5,C  11,C   9,H  12)    -58.9800         0.013129   
     57. D(F   5,C  11,C   9,O   7)   -179.2714         0.013129   
    -----------------------------------------------------------------

Number of atoms                         .... 15
Number of degrees of freedom            .... 57


         *************************************************************
         *                GEOMETRY OPTIMIZATION CYCLE   1            *
         *************************************************************
---------------------------------
CARTESIAN COORDINATES (ANGSTROEM)
---------------------------------
  F      1.285300   -1.622400    0.560300
  F      1.388800   -0.597900   -1.373800
  F      2.298000    1.670700   -0.140900
  F      3.532300   -0.088000    0.209600
  F     -2.562500    0.280100    1.344900
  F     -3.468700   -0.641500   -0.412300
  F     -2.465500    1.292300   -0.584500
  O     -0.039400    0.178100    0.208700
  C      1.230300   -0.410100   -0.042300
  C     -1.113300   -0.616300   -0.275200
  C      2.329200    0.470500    0.489300
  C     -2.414700    0.084700    0.016300
  H     -1.104200   -1.594100    0.218200
  H     -1.011200   -0.764100   -1.355600
  H      2.253500    0.636300    1.567300

----------------------------
CARTESIAN COORDINATES (A.U.)
----------------------------
  NO LB      ZA    FRAG     MASS         X           Y           Z
   0 F     9.0000    0    18.998    2.428865   -3.065892    1.058814
   1 F     9.0000    0    18.998    2.624452   -1.129867   -2.596106
   2 F     9.0000    0    18.998    4.342591    3.157165   -0.266262
   3 F     9.0000    0    18.998    6.675080   -0.166296    0.396087
   4 F     9.0000    0    18.998   -4.842423    0.529312    2.541493
   5 F     9.0000    0    18.998   -6.554893   -1.212259   -0.779134
   6 F     9.0000    0    18.998   -4.659120    2.442093   -1.104545
   7 O     8.0000    0    15.999   -0.074455    0.336560    0.394386
   8 C     6.0000    0    12.011    2.324930   -0.774977   -0.079935
   9 C     6.0000    0    12.011   -2.103832   -1.164638   -0.520053
  10 C     6.0000    0    12.011    4.401550    0.889116    0.924643
  11 C     6.0000    0    12.011   -4.563122    0.160060    0.030803
  12 H     1.0000    0     1.008   -2.086636   -3.012412    0.412338
  13 H     1.0000    0     1.008   -1.910891   -1.443940   -2.561713
  14 H     1.0000    0     1.008    4.258498    1.202433    2.961768

--------------------------------
INTERNAL COORDINATES (ANGSTROEM)
--------------------------------
 F      0   0   0     0.000000000000     0.00000000     0.00000000
 F      1   0   0     2.191131057240     0.00000000     0.00000000
 F      2   1   0     2.737377031028    90.32221911     0.00000000
 F      3   2   1     2.177009974713    65.87822430    57.47134963
 F      1   2   3     4.363561418154    89.80003295    81.40692274
 F      5   1   2     2.181352066953    92.13639085    60.38889849
 F      5   1   2     2.180949838946    90.23279504     0.27539853
 O      1   2   3     2.262797582640    61.21372454    63.40901423
 C      2   1   3     1.353987939385    36.02974168   332.88082369
 C      8   1   2     1.420736351333    92.89588178    91.36341887
 C      4   3   2     1.355582513165    36.60073560   290.26676087
 C      7   5   1     1.349755177801    36.16371501    54.82331469
 H     10   8   1     1.095271295159   109.84416045    31.33842367
 H     10   8   1     1.095232126081   109.93641604   271.58082554
 H     11   4   3     1.093299652428   109.10960233   242.53891516

---------------------------
INTERNAL COORDINATES (A.U.)
---------------------------
 F      0   0   0     0.000000000000     0.00000000     0.00000000
 F      1   0   0     4.140637621712     0.00000000     0.00000000
 F      2   1   0     5.172892913929    90.32221911     0.00000000
 F      3   2   1     4.113952643022    65.87822430    57.47134963
 F      1   2   3     8.245936048856    89.80003295    81.40692274
 F      5   1   2     4.122158008204    92.13639085    60.38889849
 F      5   1   2     4.121397907428    90.23279504     0.27539853
 O      1   2   3     4.276067727688    61.21372454    63.40901423
 C      2   1   3     2.558666394070    36.02974168   332.88082369
 C      8   1   2     2.684802612527    92.89588178    91.36341887
 C      4   3   2     2.561679701815    36.60073560   290.26676087
 C      7   5   1     2.550667633886    36.16371501    54.82331469
 H     10   8   1     2.069762790196   109.84416045    31.33842367
 H     10   8   1     2.069688771365   109.93641604   271.58082554
 H     11   4   3     2.066036925401   109.10960233   242.53891516

---------------------
BASIS SET INFORMATION
---------------------
There are 4 groups of distinct atoms

 Group   1 Type F   : 19s6p3d2f contracted to 5s4p3d2f pattern {88111/3111/111/11}
 Group   2 Type O   : 19s6p3d2f contracted to 5s4p3d2f pattern {88111/3111/111/11}
 Group   3 Type C   : 19s6p3d2f contracted to 5s4p3d2f pattern {88111/3111/111/11}
 Group   4 Type H   : 6s3p2d contracted to 4s3p2d pattern {3111/111/11}

Atom   0F    basis set group =>   1
Atom   1F    basis set group =>   1
Atom   2F    basis set group =>   1
Atom   3F    basis set group =>   1
Atom   4F    basis set group =>   1
Atom   5F    basis set group =>   1
Atom   6F    basis set group =>   1
Atom   7O    basis set group =>   2
Atom   8C    basis set group =>   3
Atom   9C    basis set group =>   3
Atom  10C    basis set group =>   3
Atom  11C    basis set group =>   3
Atom  12H    basis set group =>   4
Atom  13H    basis set group =>   4
Atom  14H    basis set group =>   4
---------------------------------
AUXILIARY/J BASIS SET INFORMATION
---------------------------------
There are 4 groups of distinct atoms

 Group   1 Type F   : 12s5p4d2f1g contracted to 6s4p3d1f1g pattern {711111/2111/211/2/1}
 Group   2 Type O   : 12s5p4d2f1g contracted to 6s4p3d1f1g pattern {711111/2111/211/2/1}
 Group   3 Type C   : 12s5p4d2f1g contracted to 6s4p3d1f1g pattern {711111/2111/211/2/1}
 Group   4 Type H   : 5s2p1d contracted to 3s1p1d pattern {311/2/1}

Atom   0F    basis set group =>   1
Atom   1F    basis set group =>   1
Atom   2F    basis set group =>   1
Atom   3F    basis set group =>   1
Atom   4F    basis set group =>   1
Atom   5F    basis set group =>   1
Atom   6F    basis set group =>   1
Atom   7O    basis set group =>   2
Atom   8C    basis set group =>   3
Atom   9C    basis set group =>   3
Atom  10C    basis set group =>   3
Atom  11C    basis set group =>   3
Atom  12H    basis set group =>   4
Atom  13H    basis set group =>   4
Atom  14H    basis set group =>   4
------------------------------------------------------------------------------
                             ORCA STARTUP CALCULATIONS
                           -- RI-GTO INTEGRALS CHOSEN --
------------------------------------------------------------------------------
------------------------------------------------------------------------------
                   ___                                                        
                  /   \      - P O W E R E D   B Y -                         
                 /     \                                                     
                 |  |  |   _    _      __       _____    __    __             
                 |  |  |  | |  | |    /  \     |  _  \  |  |  /  |          
                  \  \/   | |  | |   /    \    | | | |  |  | /  /          
                 / \  \   | |__| |  /  /\  \   | |_| |  |  |/  /          
                |  |  |   |  __  | /  /__\  \  |    /   |      \           
                |  |  |   | |  | | |   __   |  |    \   |  |\   \          
                \     /   | |  | | |  |  |  |  | |\  \  |  | \   \       
                 \___/    |_|  |_| |__|  |__|  |_| \__\ |__|  \__/        
                                                                              
                      - O R C A' S   B I G   F R I E N D -                    
                                      &                                       
                       - I N T E G R A L  F E E D E R -                       
                                                                              
 v1 FN, 2020, v2 2021, v3 2022-2024                                           
------------------------------------------------------------------------------


----------------------
SHARK INTEGRAL PACKAGE
----------------------

Number of atoms                             ...     15
Number of basis functions                   ...    693
Number of shells                            ...    267
Maximum angular momentum                    ...      3
Integral batch strategy                     ... SHARK/LIBINT Hybrid
RI-J (if used) integral strategy            ... SPLIT-RIJ (Revised 2003 algorithm where possible)
Printlevel                                  ...      1
Contraction scheme used                     ... PARTIAL GENERAL contraction
Prescreening option                         ... SCHWARTZ
   Thresh                                   ... 2.500e-11
   Tcut                                     ... 2.500e-12
   Tpresel                                  ... 2.500e-12 
Coulomb Range Separation                    ... NOT USED
Exchange Range Separation                   ... NOT USED
Multipole approximations                    ... NOT USED
Finite Nucleus Model                        ... NOT USED
CABS basis                                  ... NOT available
Auxiliary Coulomb fitting basis             ... AVAILABLE
   # of basis functions in Aux-J            ...    621
   # of shells in Aux-J                     ...    195
   Maximum angular momentum in Aux-J        ...      4
Auxiliary J/K fitting basis                 ... NOT available
Auxiliary Correlation fitting basis         ... NOT available
Auxiliary 'external' fitting basis          ... NOT available

Checking pre-screening integrals            ... done (  0.0 sec) Dimension = 267
Save PGC pre-screening integrals            ... done (  0.0 sec) Dimension = 267
Calculate PGC overlap integrals             ... done (  0.1 sec) Dimension = 195
Calculating pre-screening integrals (ORCA)  ... done (  0.4 sec) Dimension = 195
Shell pair information
Shell pair cut-off parameter TPreSel        ...   2.5e-12
Total number of shell pairs                 ...     35778
Shell pairs after pre-screening             ...     26108
Total number of primitive shell pairs       ...     44298
Primitive shell pairs kept                  ...     30388
          la=0 lb=0:   5717 shell pairs
          la=1 lb=0:   6591 shell pairs
          la=1 lb=1:   1523 shell pairs
          la=2 lb=0:   4606 shell pairs
          la=2 lb=1:   2168 shell pairs
          la=2 lb=2:    799 shell pairs
          la=3 lb=0:   2393 shell pairs
          la=3 lb=1:   1205 shell pairs
          la=3 lb=2:    859 shell pairs
          la=3 lb=3:    247 shell pairs

Checking whether 4 symmetric matrices of dimension 693 fit in memory
:Max Core in MB      =   4096.00
 MB in use           =     31.68
 MB left             =   4064.32
 MB needed           =      7.34
 Data fit in memory  = YES
Calculating RI/J V-Matrix + Cholesky decomp.... done (  0.5 sec)
Calculating Nuclear repulsion               ... done (  0.0 sec) ENN=    840.796475296706 Eh

Diagonalization of the overlap matrix:
Smallest eigenvalue                        ... 9.146e-06
Time for diagonalization                   ...    0.129 sec
Threshold for overlap eigenvalues          ... 1.000e-07
Number of eigenvalues below threshold      ... 0
Time for construction of square roots      ...    0.275 sec
Total time needed                          ...    0.406 sec

-------------------
DFT GRID GENERATION
-------------------

General Integration Accuracy     IntAcc      ... 4.388
Radial Grid Type                 RadialGrid  ... OptM3 with GC (2021)
Angular Grid (max. ang.)         AngularGrid ... 4 (Lebedev-302)
Angular grid pruning method      GridPruning ... 4 (adaptive)
Weight generation scheme         WeightScheme... mBecke (2022)
Basis function cutoff            BFCut       ... 1.0000e-11
Integration weight cutoff        WCut        ... 1.0000e-14
Partially contracted basis set               ... off
Rotationally invariant grid construction     ... off
Angular grids for H and He will be reduced by one unit
Diffuse basis detected: some atoms will have their outermost
                        angular grid increased by 1.

Total number of grid points                  ...    86688
Total number of batches                      ...     1361
Average number of points per batch           ...       63
Average number of grid points per atom       ...     5779

---------------------
SHARK GRID GENERATION
---------------------

General Integration Accuracy     IntAcc      ... 4.388
Radial Grid Type                 RadialGrid  ... OptM3 with GC (2021)
Angular Grid (max. ang.)         AngularGrid ... 4 (Lebedev-302)
Angular grid pruning method      GridPruning ... 4 (adaptive)
Weight generation scheme         WeightScheme... mBecke (2022)
Basis function cutoff            BFCut       ... 1.0000e-11
Integration weight cutoff        WCut        ... 1.0000e-14
Partially contracted basis set               ... off
Rotationally invariant grid construction     ... off
Angular grids for H and He will be reduced by one unit
Diffuse basis detected: some atoms will have their outermost
                        angular grid increased by 1.
Steep s-basis detected: some atoms will have their radial
                        grid points doubled.

Total number of grid points                  ...   164000
Total number of batches                      ...     2572
Average number of points per batch           ...       63
Average number of grid points per atom       ...    10933

--------------------
COSX GRID GENERATION
--------------------

GRIDX 1
-------
General Integration Accuracy     IntAcc      ... 3.816
Radial Grid Type                 RadialGrid  ... OptM3 with GC (2021)
Angular Grid (max. ang.)         AngularGrid ... 1 (Lebedev-50)
Angular grid pruning method      GridPruning ... 4 (adaptive)
Weight generation scheme         WeightScheme... mBecke (2022)
Basis function cutoff            BFCut       ... 1.0000e-11
Integration weight cutoff        WCut        ... 1.0000e-14
Partially contracted basis set               ... on
Rotationally invariant grid construction     ... off
Angular grids for H and He will be reduced by one unit
Diffuse basis detected: some atoms will have their outermost
                        angular grid increased by 1.

Total number of grid points                  ...    10954
Total number of batches                      ...       94
Average number of points per batch           ...      116
Average number of grid points per atom       ...      730
UseSFitting                                  ... on

GRIDX 2
-------
General Integration Accuracy     IntAcc      ... 4.020
Radial Grid Type                 RadialGrid  ... OptM3 with GC (2021)
Angular Grid (max. ang.)         AngularGrid ... 2 (Lebedev-110)
Angular grid pruning method      GridPruning ... 4 (adaptive)
Weight generation scheme         WeightScheme... mBecke (2022)
Basis function cutoff            BFCut       ... 1.0000e-11
Integration weight cutoff        WCut        ... 1.0000e-14
Partially contracted basis set               ... on
Rotationally invariant grid construction     ... off
Angular grids for H and He will be reduced by one unit
Diffuse basis detected: some atoms will have their outermost
                        angular grid increased by 1.

Total number of grid points                  ...    28577
Total number of batches                      ...      233
Average number of points per batch           ...      122
Average number of grid points per atom       ...     1905
UseSFitting                                  ... on

GRIDX 3
-------
General Integration Accuracy     IntAcc      ... 4.338
Radial Grid Type                 RadialGrid  ... OptM3 with GC (2021)
Angular Grid (max. ang.)         AngularGrid ... 3 (Lebedev-194)
Angular grid pruning method      GridPruning ... 4 (adaptive)
Weight generation scheme         WeightScheme... mBecke (2022)
Basis function cutoff            BFCut       ... 1.0000e-11
Integration weight cutoff        WCut        ... 1.0000e-14
Partially contracted basis set               ... on
Rotationally invariant grid construction     ... off
Angular grids for H and He will be reduced by one unit
Diffuse basis detected: some atoms will have their outermost
                        angular grid increased by 1.

Total number of grid points                  ...    62273
Total number of batches                      ...      493
Average number of points per batch           ...      126
Average number of grid points per atom       ...     4152
UseSFitting                                  ... on
Grids setup in  10.5 sec
Initializing property integral containers    ... done (  0.1 sec)

SHARK setup successfully completed in  17.5 seconds

Maximum memory used throughout the entire STARTUP-calculation: 127.8 MB
-------------------------------------------------------------------------------
                                 ORCA GUESS
                   Start orbitals & Density for SCF / CASSCF
-------------------------------------------------------------------------------

------------
SCF SETTINGS
------------
Hamiltonian:
 Density Functional     Method          .... DFT(GTOs)
 Exchange Functional    Exchange        .... B88
   X-Alpha parameter    XAlpha          ....  0.666667
   Becke's b parameter  XBeta           ....  0.004200
 Correlation Functional Correlation     .... LYP
 LDA part of GGA corr.  LDAOpt          .... VWN-5
 Gradients option       PostSCFGGA      .... off
 Hybrid DFT is turned on
   Fraction HF Exchange ScalHFX         ....  0.200000
   Scaling of DF-GGA-X  ScalDFX         ....  0.720000
   Scaling of DF-GGA-C  ScalDFC         ....  0.810000
   Scaling of DF-LDA-C  ScalLDAC        ....  1.000000
   Perturbative correction              ....  0.000000
   NL short-range parameter             ....  4.800000
 RI-approximation to the Coulomb term is turned on
   Number of AuxJ basis functions       .... 621
   RIJ-COSX (HFX calculated with COS-X)).... on


General Settings:
 Integral files         IntName         .... HFE_347pcf2_anti
 Hartree-Fock type      HFTyp           .... RHF
 Total Charge           Charge          ....    0
 Multiplicity           Mult            ....    1
 Number of Electrons    NEL             ....   98
 Basis Dimension        Dim             ....  621
 Nuclear Repulsion      ENuc            ....    840.7964752967 Eh

Convergence Acceleration:
 AO-DIIS                CNVDIIS         .... on
   Start iteration      DIISMaxIt       ....    12
   Startup error        DIISStart       ....  0.200000
   # of expansion vecs  DIISMaxEq       ....     5
   Bias factor          DIISBfac        ....   1.050
   Max. coefficient     DIISMaxC        ....  10.000
 MO-DIIS                CNVKDIIS        .... off
 Trust-Rad. Augm. Hess. CNVTRAH         .... auto
   Auto Start mean grad. ratio tolernc. ....  1.125000
   Auto Start start iteration           ....    50
   Auto Start num. interpolation iter.  ....    10
   Max. Number of Micro iterations      ....    24
   Max. Number of Macro iterations      .... Maxiter - #DIIS iter
   Number of Davidson start vectors     ....     2
   Converg. threshold    (grad. norm)   ....   1.000e-05
   Grad. Scal. Fac. for Micro threshold ....   0.100
   Minimum threshold for Micro iter.    ....   1.000e-02
   NR start threshold (gradient norm)   ....   1.000e-04
   Initial trust radius                 ....   0.400
   Minimum AH scaling param. (alpha)    ....   1.000
   Maximum AH scaling param. (alpha)    .... 1000.000
   Quad. conv. algorithm                .... NR
   White noise on init. David. guess    .... on
   Maximum white noise                  ....   0.010
   Pseudo random numbers                .... off
   Inactive MOs                         .... canonical
   Orbital update algorithm             .... Taylor
   Preconditioner                       .... Diag
   Full preconditioner red. dimension   ....   250
 SOSCF                 CNVSOSCF           .... on
   Start iteration     SOSCFMaxIt         ....   150
   Startup grad/error  SOSCFStart         ....  0.003300
   Hessian update      SOSCFHessUp        .... L-BFGS
   Autom. constraints  SOSCFAutoConstrain .... off
 Level Shifting         CNVShift        .... on
   Level shift para.    LevelShift      ....    0.2500
   Turn off err/grad.   ShiftErr        ....    0.0010
 Zerner damping         CNVZerner       .... off
 Static damping         CNVDamp         .... on
   Fraction old density DampFac         ....    0.7000
   Max. Damping (<1)    DampMax         ....    0.9800
   Min. Damping (>=0)   DampMin         ....    0.0000
   Turn off err/grad.   DampErr         ....    0.1000

SCF Procedure:
 Maximum # iterations   MaxIter         ....   125
 SCF integral mode      SCFMode         .... Direct
   Integral package                     .... SHARK and LIBINT hybrid scheme
 Reset frequency        DirectResetFreq ....    20
 Integral Threshold     Thresh          ....  2.500e-11 Eh
 Primitive CutOff       TCut            ....  2.500e-12 Eh

Convergence Tolerance:
 Convergence Check Mode ConvCheckMode   .... Total+1el-Energy
 Convergence forced     ConvForced      .... 0
 Energy Change          TolE            ....  1.000e-08 Eh
 1-El. energy change                    ....  1.000e-05 Eh
 Orbital Gradient       TolG            ....  1.000e-05
 Orbital Rotation angle TolX            ....  1.000e-05
 DIIS Error             TolErr          ....  5.000e-07

------------------------------
INITIAL GUESS: MODEL POTENTIAL
------------------------------
Loading Hartree-Fock densities                     ... done
Calculating cut-offs                               ... done
Initializing the effective Hamiltonian             ... done
Setting up the integral package (SHARK)            ... done
Starting the Coulomb interaction                   ... done (   1.1 sec)
Making the grid                                    ... done (   0.7 sec)
Mapping shells                                     ... done
Starting the XC term evaluation                    ... done (   2.3 sec)
  promolecular density results
     # of electrons  =     97.995540806
     EX              =   -100.069261070
     EC              =     -3.642491992
     EX+EC           =   -103.711753062
Transforming the Hamiltonian                       ... done (   0.1 sec)
Diagonalizing the Hamiltonian                      ... done (   0.2 sec)
Back transforming the eigenvectors                 ... done (   0.0 sec)
Now organizing SCF variables                       ... done
                      ------------------
                      INITIAL GUESS DONE (   4.6 sec)
                      ------------------
             **** ENERGY FILE WAS UPDATED (HFE_347pcf2_anti.en.tmp) ****
Finished Guess after   5.2 sec
Maximum memory used throughout the entire GUESS-calculation: 89.9 MB

-------------------------------------------------------------------------------------------
                                      ORCA LEAN-SCF
                              memory conserving SCF solver
-------------------------------------------------------------------------------------------

----------------------------------------D-I-I-S--------------------------------------------
Iteration    Energy (Eh)           Delta-E    RMSDP     MaxDP     DIISErr   Damp  Time(sec)
-------------------------------------------------------------------------------------------
               ***  Starting incremental Fock matrix formation  ***
    1    -928.1351776351217495     0.00e+00  7.03e-04  5.56e-02  2.16e-01  0.700  62.4
    2    -928.2423410279440077    -1.07e-01  3.87e-04  2.42e-02  8.40e-02  0.700  28.1
                               ***Turning on AO-DIIS***
    3    -928.2782030637569051    -3.59e-02  1.81e-04  1.60e-02  2.39e-02  0.700  25.7
    4    -928.3022936227397395    -2.41e-02  4.18e-04  3.73e-02  1.28e-02  0.000  25.2
                              *** Initializing SOSCF ***
---------------------------------------S-O-S-C-F--------------------------------------
Iteration    Energy (Eh)           Delta-E    RMSDP     MaxDP     MaxGrad    Time(sec)
--------------------------------------------------------------------------------------
    5    -928.3576896462267314    -5.54e-02  4.10e-05  2.86e-03  2.38e-03    25.6
               *** Restarting incremental Fock matrix formation ***
    6    -928.3577650050182228    -7.54e-05  3.87e-05  2.25e-03  2.01e-04    65.5
    7    -928.3577646953243629     3.10e-07  8.42e-06  3.89e-04  1.94e-04    45.0
    8    -928.3577711465233051    -6.45e-06  6.91e-06  3.97e-04  4.16e-05    38.5
    9    -928.3577711927752034    -4.63e-08  1.07e-06  8.47e-05  3.11e-05    36.9
   10    -928.3577713139671914    -1.21e-07  1.53e-06  9.52e-05  1.22e-05    31.2
   11    -928.3577713071312019     6.84e-09  7.63e-07  6.31e-05  9.75e-06    31.6
                 **** Energy Check signals convergence ****

               *****************************************************
               *                     SUCCESS                       *
               *           SCF CONVERGED AFTER  11 CYCLES          *
               *****************************************************

Recomputing exchange energy using gridx3       ... done (   97.911 sec)
Old exchange energy                            :    -20.075290045 Eh
New exchange energy                            :    -20.075387200 Eh
Exchange energy change after final integration :     -0.000097156 Eh
Total energy after final integration           :   -928.357868470 Eh
             **** ENERGY FILE WAS UPDATED (HFE_347pcf2_anti.en.tmp) ****

----------------
TOTAL SCF ENERGY
----------------

Total Energy       :       -928.35786847027862 Eh          -25261.90189 eV

Components:
Nuclear Repulsion  :        840.79647529670603 Eh           22879.23525 eV
Electronic Energy  :      -1769.15424661136763 Eh          -48141.13450 eV
One Electron Energy:      -2959.25921340133937 Eh          -80525.53704 eV
Two Electron Energy:       1190.10496678997174 Eh           32384.40254 eV

Virial components:
Potential Energy   :      -1852.07067845775396 Eh          -50397.40532 eV
Kinetic Energy     :        923.71280998747534 Eh           25135.50342 eV
Virial Ratio       :          2.00502868254351

DFT components:
N(Alpha)           :       49.000071344992 electrons
N(Beta)            :       49.000071344992 electrons
N(Total)           :       98.000142689984 electrons
E(X)               :      -79.985233490072 Eh       
E(C)               :       -4.260827141096 Eh       
E(XC)              :      -84.246060631167 Eh       

---------------
SCF CONVERGENCE
---------------

  Last Energy change         ...   -6.8360e-09  Tolerance :   1.0000e-08
  Last MAX-Density change    ...    6.3148e-05  Tolerance :   1.0000e-07
  Last RMS-Density change    ...    7.6314e-07  Tolerance :   5.0000e-09
  Last DIIS Error            ...    2.3845e-03  Tolerance :   5.0000e-07
  Last Orbital Gradient      ...    9.7463e-06  Tolerance :   1.0000e-05
  Last Orbital Rotation      ...    6.0656e-06  Tolerance :   1.0000e-05


----------------
ORBITAL ENERGIES
----------------

  NO   OCC          E(Eh)            E(eV) 
   0   2.0000     -24.744826      -673.3410 
   1   2.0000     -24.740898      -673.2341 
   2   2.0000     -24.739097      -673.1850 
   3   2.0000     -24.731792      -672.9863 
   4   2.0000     -24.731436      -672.9766 
   5   2.0000     -24.728452      -672.8954 
   6   2.0000     -24.725417      -672.8128 
   7   2.0000     -19.208071      -522.6782 
   8   2.0000     -10.448078      -284.3067 
   9   2.0000     -10.436414      -283.9893 
  10   2.0000     -10.379064      -282.4287 
  11   2.0000     -10.280604      -279.7495 
  12   2.0000      -1.330881       -36.2151 
  13   2.0000      -1.321728       -35.9661 
  14   2.0000      -1.289915       -35.1004 
  15   2.0000      -1.253208       -34.1015 
  16   2.0000      -1.246994       -33.9324 
  17   2.0000      -1.242404       -33.8075 
  18   2.0000      -1.232784       -33.5458 
  19   2.0000      -1.103844       -30.0371 
  20   2.0000      -0.837546       -22.7908 
  21   2.0000      -0.783647       -21.3241 
  22   2.0000      -0.699559       -19.0360 
  23   2.0000      -0.683120       -18.5887 
  24   2.0000      -0.629626       -17.1330 
  25   2.0000      -0.625810       -17.0291 
  26   2.0000      -0.621051       -16.8997 
  27   2.0000      -0.614152       -16.7119 
  28   2.0000      -0.599725       -16.3194 
  29   2.0000      -0.576257       -15.6808 
  30   2.0000      -0.574949       -15.6452 
  31   2.0000      -0.569692       -15.5021 
  32   2.0000      -0.518998       -14.1227 
  33   2.0000      -0.500069       -13.6076 
  34   2.0000      -0.490268       -13.3409 
  35   2.0000      -0.487600       -13.2683 
  36   2.0000      -0.483522       -13.1573 
  37   2.0000      -0.467783       -12.7290 
  38   2.0000      -0.461709       -12.5637 
  39   2.0000      -0.453407       -12.3378 
  40   2.0000      -0.451420       -12.2838 
  41   2.0000      -0.441392       -12.0109 
  42   2.0000      -0.439859       -11.9692 
  43   2.0000      -0.437600       -11.9077 
  44   2.0000      -0.431298       -11.7362 
  45   2.0000      -0.429164       -11.6781 
  46   2.0000      -0.394729       -10.7411 
  47   2.0000      -0.384525       -10.4635 
  48   2.0000      -0.348757        -9.4902 
  49   0.0000      -0.011636        -0.3166 
  50   0.0000       0.000109         0.0030 
  51   0.0000       0.009850         0.2680 
  52   0.0000       0.013624         0.3707 
  53   0.0000       0.025550         0.6952 
  54   0.0000       0.036206         0.9852 
  55   0.0000       0.039443         1.0733 
  56   0.0000       0.053516         1.4562 
  57   0.0000       0.061473         1.6728 
  58   0.0000       0.061980         1.6866 
  59   0.0000       0.067763         1.8439 
*Only the first 10 virtual orbitals were printed.

                    ********************************
                    * MULLIKEN POPULATION ANALYSIS *
                    ********************************

-----------------------
MULLIKEN ATOMIC CHARGES
-----------------------
   0 F :   -0.431740
   1 F :   -0.427034
   2 F :   -0.393195
   3 F :   -0.404881
   4 F :   -0.379874
   5 F :   -0.377249
   6 F :   -0.374476
   7 O :   -0.506322
   8 C :    1.423117
   9 C :   -0.309018
  10 C :    0.242206
  11 C :    1.162742
  12 H :    0.250614
  13 H :    0.253952
  14 H :    0.271158
Sum of atomic charges:    0.0000000

--------------------------------
MULLIKEN REDUCED ORBITAL CHARGES
--------------------------------
  0 F s       :     4.026769  s :     4.026769
      pz      :     1.845263  p :     5.360885
      px      :     1.968387
      py      :     1.547235
      dz2     :     0.008655  d :     0.039899
      dxz     :     0.003446
      dyz     :     0.007759
      dx2y2   :     0.008350
      dxy     :     0.011690
      f0      :     0.000270  f :     0.004188
      f+1     :     0.000074
      f-1     :     0.001089
      f+2     :     0.000598
      f-2     :     0.000574
      f+3     :     0.001084
      f-3     :     0.000498

  1 F s       :     4.028714  s :     4.028714
      pz      :     1.459023  p :     5.353279
      px      :     1.959264
      py      :     1.934992
      dz2     :     0.010250  d :     0.040730
      dxz     :     0.012977
      dyz     :     0.013030
      dx2y2   :     0.002270
      dxy     :     0.002203
      f0      :     0.001155  f :     0.004311
      f+1     :     0.001401
      f-1     :     0.001230
      f+2     :     0.000179
      f-2     :     0.000270
      f+3     :     0.000057
      f-3     :     0.000020

  2 F s       :     4.022621  s :     4.022621
      pz      :     1.839883  p :     5.332502
      px      :     1.937219
      py      :     1.555399
      dz2     :     0.007831  d :     0.034410
      dxz     :     0.002140
      dyz     :     0.008571
      dx2y2   :     0.006780
      dxy     :     0.009087
      f0      :     0.000250  f :     0.003662
      f+1     :     0.000001
      f-1     :     0.001010
      f+2     :     0.000604
      f-2     :     0.000492
      f+3     :     0.000831
      f-3     :     0.000474

  3 F s       :     4.025516  s :     4.025516
      pz      :     1.929661  p :     5.338900
      px      :     1.543270
      py      :     1.865968
      dz2     :     0.004790  d :     0.036732
      dxz     :     0.009276
      dyz     :     0.002940
      dx2y2   :     0.011887
      dxy     :     0.007838
      f0      :     0.000329  f :     0.003734
      f+1     :     0.000608
      f-1     :     0.000143
      f+2     :     0.000324
      f-2     :     0.000456
      f+3     :     0.001164
      f-3     :     0.000710

  4 F s       :     4.027540  s :     4.027540
      pz      :     1.453176  p :     5.313945
      px      :     1.936741
      py      :     1.924027
      dz2     :     0.008494  d :     0.034535
      dxz     :     0.012088
      dyz     :     0.010319
      dx2y2   :     0.001661
      dxy     :     0.001972
      f0      :     0.001205  f :     0.003855
      f+1     :     0.001205
      f-1     :     0.001062
      f+2     :     0.000140
      f-2     :     0.000221
      f+3     :     0.000014
      f-3     :     0.000008

  5 F s       :     4.020977  s :     4.020977
      pz      :     1.883516  p :     5.315465
      px      :     1.631844
      py      :     1.800104
      dz2     :     0.005873  d :     0.036923
      dxz     :     0.006215
      dyz     :     0.004407
      dx2y2   :     0.014178
      dxy     :     0.006250
      f0      :     0.000286  f :     0.003885
      f+1     :     0.000626
      f-1     :     0.000241
      f+2     :     0.000335
      f-2     :     0.000628
      f+3     :     0.001164
      f-3     :     0.000605

  6 F s       :     4.026084  s :     4.026084
      pz      :     1.834033  p :     5.309484
      px      :     1.941986
      py      :     1.533465
      dz2     :     0.006762  d :     0.035028
      dxz     :     0.003098
      dyz     :     0.007789
      dx2y2   :     0.006194
      dxy     :     0.011185
      f0      :     0.000246  f :     0.003880
      f+1     :     0.000034
      f-1     :     0.000987
      f+2     :     0.000627
      f-2     :     0.000529
      f+3     :     0.000946
      f-3     :     0.000511

  7 O s       :     3.932405  s :     3.932405
      pz      :     1.778220  p :     4.467723
      px      :     1.100399
      py      :     1.589105
      dz2     :     0.010984  d :     0.096709
      dxz     :     0.019812
      dyz     :     0.008067
      dx2y2   :     0.027976
      dxy     :     0.029871
      f0      :     0.000810  f :     0.009484
      f+1     :     0.001484
      f-1     :     0.000444
      f+2     :     0.000865
      f-2     :     0.001652
      f+3     :     0.003458
      f-3     :     0.000772

  8 C s       :     2.820050  s :     2.820050
      pz      :     0.433142  p :     1.363594
      px      :     0.471340
      py      :     0.459112
      dz2     :     0.063709  d :     0.361981
      dxz     :     0.036924
      dyz     :     0.073351
      dx2y2   :     0.083112
      dxy     :     0.104885
      f0      :     0.001559  f :     0.031257
      f+1     :     0.004010
      f-1     :     0.016442
      f+2     :     0.003359
      f-2     :     0.008924
      f+3     :    -0.003982
      f-3     :     0.000944

  9 C s       :     3.321309  s :     3.321309
      pz      :     1.028090  p :     2.713034
      px      :     0.761467
      py      :     0.923477
      dz2     :     0.068000  d :     0.284192
      dxz     :     0.065650
      dyz     :     0.026663
      dx2y2   :     0.074205
      dxy     :     0.049674
      f0      :     0.000926  f :    -0.009516
      f+1     :    -0.004608
      f-1     :    -0.000074
      f+2     :     0.001650
      f-2     :    -0.003526
      f+3     :    -0.008276
      f-3     :     0.004390

 10 C s       :     3.243070  s :     3.243070
      pz      :     0.895015  p :     2.174683
      px      :     0.648232
      py      :     0.631436
      dz2     :     0.107797  d :     0.330360
      dxz     :     0.047146
      dyz     :     0.035386
      dx2y2   :     0.054279
      dxy     :     0.085752
      f0      :     0.002111  f :     0.009681
      f+1     :    -0.000712
      f-1     :     0.001868
      f+2     :     0.000778
      f-2     :     0.003589
      f+3     :     0.003377
      f-3     :    -0.001329

 11 C s       :     2.733870  s :     2.733870
      pz      :     0.461993  p :     1.639350
      px      :     0.664266
      py      :     0.513091
      dz2     :     0.083093  d :     0.415259
      dxz     :     0.087316
      dyz     :     0.080684
      dx2y2   :     0.073810
      dxy     :     0.090357
      f0      :    -0.000381  f :     0.048780
      f+1     :     0.011155
      f-1     :     0.017411
      f+2     :     0.006507
      f-2     :     0.006781
      f+3     :     0.003283
      f-3     :     0.004024

 12 H s       :     0.727170  s :     0.727170
      pz      :     0.004928  p :     0.018133
      px      :     0.002522
      py      :     0.010683
      dz2     :     0.001631  d :     0.004083
      dxz     :     0.000693
      dyz     :     0.000608
      dx2y2   :     0.000015
      dxy     :     0.001136

 13 H s       :     0.724654  s :     0.724654
      pz      :     0.009773  p :     0.017184
      px      :     0.001288
      py      :     0.006123
      dz2     :    -0.000518  d :     0.004211
      dxz     :     0.000642
      dyz     :     0.001279
      dx2y2   :     0.001744
      dxy     :     0.001064

 14 H s       :     0.690550  s :     0.690550
      pz      :     0.013565  p :     0.033041
      px      :     0.010817
      py      :     0.008659
      dz2     :    -0.000161  d :     0.005251
      dxz     :     0.000580
      dyz     :    -0.000537
      dx2y2   :     0.002911
      dxy     :     0.002458



                     *******************************
                     * LOEWDIN POPULATION ANALYSIS *
                     *******************************

----------------------
LOEWDIN ATOMIC CHARGES
----------------------
   0 F :    0.567900
   1 F :    0.569029
   2 F :    0.542491
   3 F :    0.540021
   4 F :    0.535313
   5 F :    0.540395
   6 F :    0.538805
   7 O :    0.579494
   8 C :   -1.410528
   9 C :   -0.051124
  10 C :   -0.868812
  11 C :   -1.553637
  12 H :   -0.173373
  13 H :   -0.173206
  14 H :   -0.182768

-------------------------------
LOEWDIN REDUCED ORBITAL CHARGES
-------------------------------
  0 F s       :     3.402643  s :     3.402643
      pz      :     1.639257  p :     4.842075
      px      :     1.674025
      py      :     1.528793
      dz2     :     0.031274  d :     0.158323
      dxz     :     0.008500
      dyz     :     0.039136
      dx2y2   :     0.036134
      dxy     :     0.043278
      f0      :     0.002068  f :     0.029059
      f+1     :     0.000324
      f-1     :     0.007270
      f+2     :     0.005338
      f-2     :     0.003344
      f+3     :     0.006826
      f-3     :     0.003889

  1 F s       :     3.401758  s :     3.401758
      pz      :     1.496198  p :     4.841887
      px      :     1.671716
      py      :     1.673973
      dz2     :     0.055154  d :     0.158169
      dxz     :     0.044616
      dyz     :     0.046670
      dx2y2   :     0.005638
      dxy     :     0.006092
      f0      :     0.009067  f :     0.029157
      f+1     :     0.008577
      f-1     :     0.008608
      f+2     :     0.000911
      f-2     :     0.001634
      f+3     :     0.000148
      f-3     :     0.000212

  2 F s       :     3.416107  s :     3.416107
      pz      :     1.645911  p :     4.853964
      px      :     1.676696
      py      :     1.531357
      dz2     :     0.037104  d :     0.158260
      dxz     :     0.006345
      dyz     :     0.043062
      dx2y2   :     0.031770
      dxy     :     0.039978
      f0      :     0.001965  f :     0.029178
      f+1     :     0.000259
      f-1     :     0.009704
      f+2     :     0.004906
      f-2     :     0.002807
      f+3     :     0.005866
      f-3     :     0.003672

  3 F s       :     3.416099  s :     3.416099
      pz      :     1.680789  p :     4.855753
      px      :     1.522787
      py      :     1.652177
      dz2     :     0.021589  d :     0.158881
      dxz     :     0.040209
      dyz     :     0.012357
      dx2y2   :     0.044265
      dxy     :     0.040461
      f0      :     0.002659  f :     0.029245
      f+1     :     0.005581
      f-1     :     0.001429
      f+2     :     0.002165
      f-2     :     0.004013
      f+3     :     0.008177
      f-3     :     0.005222

  4 F s       :     3.422237  s :     3.422237
      pz      :     1.501696  p :     4.856736
      px      :     1.679806
      py      :     1.675235
      dz2     :     0.053999  d :     0.156628
      dxz     :     0.046113
      dyz     :     0.046627
      dx2y2   :     0.003478
      dxy     :     0.006412
      f0      :     0.009422  f :     0.029086
      f+1     :     0.008378
      f-1     :     0.008243
      f+2     :     0.000795
      f-2     :     0.001849
      f+3     :     0.000137
      f-3     :     0.000262

  5 F s       :     3.422698  s :     3.422698
      pz      :     1.662415  p :     4.852653
      px      :     1.559323
      py      :     1.630915
      dz2     :     0.025506  d :     0.155231
      dxz     :     0.027361
      dyz     :     0.019575
      dx2y2   :     0.044961
      dxy     :     0.037827
      f0      :     0.002060  f :     0.029023
      f+1     :     0.004475
      f-1     :     0.002435
      f+2     :     0.002080
      f-2     :     0.005067
      f+3     :     0.007972
      f-3     :     0.004933

  6 F s       :     3.422196  s :     3.422196
      pz      :     1.642500  p :     4.854007
      px      :     1.681460
      py      :     1.530047
      dz2     :     0.031034  d :     0.155900
      dxz     :     0.008366
      dyz     :     0.040330
      dx2y2   :     0.032812
      dxy     :     0.043358
      f0      :     0.002206  f :     0.029091
      f+1     :     0.000317
      f-1     :     0.007145
      f+2     :     0.005505
      f-2     :     0.003262
      f+3     :     0.006843
      f-3     :     0.003814

  7 O s       :     3.013104  s :     3.013104
      pz      :     1.403007  p :     3.868008
      px      :     1.122246
      py      :     1.342755
      dz2     :     0.064519  d :     0.421370
      dxz     :     0.083338
      dyz     :     0.035768
      dx2y2   :     0.124696
      dxy     :     0.113050
      f0      :     0.007311  f :     0.118024
      f+1     :     0.020114
      f-1     :     0.009618
      f+2     :     0.008600
      f-2     :     0.018448
      f+3     :     0.035571
      f-3     :     0.018362

  8 C s       :     2.471160  s :     2.471160
      pz      :     0.661678  p :     2.121218
      px      :     0.760164
      py      :     0.699376
      dz2     :     0.376282  d :     1.616254
      dxz     :     0.282841
      dyz     :     0.331130
      dx2y2   :     0.296872
      dxy     :     0.329129
      f0      :     0.188618  f :     1.201896
      f+1     :     0.180279
      f-1     :     0.247587
      f+2     :     0.128888
      f-2     :     0.128414
      f+3     :     0.191431
      f-3     :     0.136678

  9 C s       :     2.456006  s :     2.456006
      pz      :     0.797453  p :     2.229185
      px      :     0.680986
      py      :     0.750746
      dz2     :     0.187370  d :     0.889784
      dxz     :     0.151209
      dyz     :     0.115778
      dx2y2   :     0.221530
      dxy     :     0.213898
      f0      :     0.047662  f :     0.476150
      f+1     :     0.072955
      f-1     :     0.030490
      f+2     :     0.055278
      f-2     :     0.079873
      f+3     :     0.116023
      f-3     :     0.073868

 10 C s       :     2.495835  s :     2.495835
      pz      :     0.816069  p :     2.157496
      px      :     0.682244
      py      :     0.659183
      dz2     :     0.283246  d :     1.324420
      dxz     :     0.179576
      dyz     :     0.220812
      dx2y2   :     0.316821
      dxy     :     0.323966
      f0      :     0.079148  f :     0.891062
      f+1     :     0.073679
      f-1     :     0.125171
      f+2     :     0.130672
      f-2     :     0.126711
      f+3     :     0.206672
      f-3     :     0.149010

 11 C s       :     2.483328  s :     2.483328
      pz      :     0.663963  p :     2.118380
      px      :     0.766044
      py      :     0.688373
      dz2     :     0.390171  d :     1.677483
      dxz     :     0.291159
      dyz     :     0.335756
      dx2y2   :     0.312958
      dxy     :     0.347438
      f0      :     0.182728  f :     1.274445
      f+1     :     0.199052
      f-1     :     0.255206
      f+2     :     0.131987
      f-2     :     0.153526
      f+3     :     0.211431
      f-3     :     0.140515

 12 H s       :     0.634611  s :     0.634611
      pz      :     0.095871  p :     0.302346
      px      :     0.079968
      py      :     0.126507
      dz2     :     0.058048  d :     0.236415
      dxz     :     0.011264
      dyz     :     0.054072
      dx2y2   :     0.044837
      dxy     :     0.068194

 13 H s       :     0.633900  s :     0.633900
      pz      :     0.145490  p :     0.302464
      px      :     0.081570
      py      :     0.075405
      dz2     :     0.063944  d :     0.236842
      dxz     :     0.064435
      dyz     :     0.077125
      dx2y2   :     0.016783
      dxy     :     0.014555

 14 H s       :     0.675970  s :     0.675970
      pz      :     0.148344  p :     0.279366
      px      :     0.065152
      py      :     0.065869
      dz2     :     0.063543  d :     0.227432
      dxz     :     0.063984
      dyz     :     0.070771
      dx2y2   :     0.012240
      dxy     :     0.016895



                      *****************************
                      * MAYER POPULATION ANALYSIS *
                      *****************************

  NA   - Mulliken gross atomic population
  ZA   - Total nuclear charge
  QA   - Mulliken gross atomic charge
  VA   - Mayer's total valence
  BVA  - Mayer's bonded valence
  FA   - Mayer's free valence

  ATOM       NA         ZA         QA         VA         BVA        FA
  0 F      9.4317     9.0000    -0.4317     0.8440     0.8440    -0.0000
  1 F      9.4270     9.0000    -0.4270     0.8682     0.8682     0.0000
  2 F      9.3932     9.0000    -0.3932     0.9283     0.9283    -0.0000
  3 F      9.4049     9.0000    -0.4049     0.8903     0.8903    -0.0000
  4 F      9.3799     9.0000    -0.3799     0.9802     0.9802    -0.0000
  5 F      9.3772     9.0000    -0.3772     0.9269     0.9269     0.0000
  6 F      9.3745     9.0000    -0.3745     0.9856     0.9856    -0.0000
  7 O      8.5063     8.0000    -0.5063     1.9270     1.9270    -0.0000
  8 C      4.5769     6.0000     1.4231     2.8721     2.8721     0.0000
  9 C      6.3090     6.0000    -0.3090     4.1662     4.1662     0.0000
 10 C      5.7578     6.0000     0.2422     3.7488     3.7488     0.0000
 11 C      4.8373     6.0000     1.1627     3.3344     3.3344     0.0000
 12 H      0.7494     1.0000     0.2506     0.9750     0.9750    -0.0000
 13 H      0.7460     1.0000     0.2540     0.9729     0.9729    -0.0000
 14 H      0.7288     1.0000     0.2712     1.0496     1.0496    -0.0000

  Mayer bond orders larger than 0.100000
B(  0-F ,  8-C ) :   0.4693 B(  0-F ,  9-C ) :   0.1131 B(  0-F , 10-C ) :   0.1133 
B(  1-F ,  8-C ) :   0.4935 B(  1-F ,  9-C ) :   0.1027 B(  1-F , 10-C ) :   0.1502 
B(  2-F , 10-C ) :   0.8187 B(  3-F , 10-C ) :   0.7913 B(  4-F , 11-C ) :   0.7888 
B(  5-F , 11-C ) :   0.7380 B(  6-F , 11-C ) :   0.7911 B(  7-O ,  8-C ) :   0.9206 
B(  7-O ,  9-C ) :   0.8120 B(  8-C , 10-C ) :   0.8610 B(  9-C , 11-C ) :   1.0180 
B(  9-C , 12-H ) :   0.8961 B(  9-C , 13-H ) :   0.8859 B( 10-C , 14-H ) :   1.0205 


-------
TIMINGS
-------

Total SCF time: 0 days 0 hours 9 min 2 sec 

Total time                  ....     542.834 sec
Sum of individual times     ....     514.297 sec  ( 94.7%)

SCF preparation             ....       0.612 sec  (  0.1%)
Fock matrix formation       ....     510.096 sec  ( 94.0%)
  Startup                   ....       0.046 sec  (  0.0% of F)
  Split-RI-J                ....      30.058 sec  (  5.9% of F)
  Chain of spheres X        ....     443.681 sec  ( 87.0% of F)
  XC integration            ....      63.120 sec  ( 12.4% of F)
    XC Preparation          ....       0.000 sec  (  0.0% of XC)
    Basis function eval.    ....       9.686 sec  ( 15.3% of XC)
    Density eval.           ....      17.315 sec  ( 27.4% of XC)
    XC-Functional eval.     ....       0.565 sec  (  0.9% of XC)
    XC-Potential eval.      ....      33.891 sec  ( 53.7% of XC)
Diagonalization             ....       0.000 sec  (  0.0%)
Density matrix formation    ....       0.474 sec  (  0.1%)
Total Energy calculation    ....       0.083 sec  (  0.0%)
Population analysis         ....       0.176 sec  (  0.0%)
Orbital Transformation      ....       0.357 sec  (  0.1%)
Orbital Orthonormalization  ....       0.000 sec  (  0.0%)
DIIS solution               ....       1.373 sec  (  0.3%)
SOSCF solution              ....       1.126 sec  (  0.2%)
Finished LeanSCF after 543.3 sec

Maximum memory used throughout the entire LEANSCF-calculation: 124.6 MB

------------------------------------------------------------------------------
                         ORCA PROPERTY INTEGRAL CALCULATIONS
------------------------------------------------------------------------------

GBWName                                   ... HFE_347pcf2_anti.gbw
Number of atoms                           ...     15
Number of basis functions                 ...    693
Max core memory                           ...   4096 MB

Dipole integrals                          ... YES
Quadrupole integrals                      ...  NO
Linear momentum integrals                 ...  NO
Angular momentum integrals                ...  NO
Higher moments length integrals           ...  NO
Higher moments velocity integrals         ...  NO
Kinetic energy integrals                  ...  NO
GIAO right hand sides                     ...  NO
GIAO dipole derivative integrals          ...  NO
SOC integrals                             ...  NO
EPR diamagnetic integrals (GIAO)          ...  NO
EPR gauge integrals                       ...  NO
Field gradient integrals                  ...  NO (   0 nuclei)
Spin-dipole/Fermi contact integrals       ...  NO (   0 nuclei)
Contact density integrals                 ...  NO (   0 nuclei)
Nucleus-orbit integrals                   ...  NO (   0 nuclei)
Geometric perturbations                   ...  NO (  15 nuclei)

Choice of electric origin   ... Center of mass
Position of electric origin ... (  0.0003,  0.0097, -0.0142) 
Choice of magnetic origin   ... GIAO
Position of magnetic origin ... (  0.0000,  0.0000,  0.0000) 

Calculating integrals                     ... Electric Dipole (Length)     done (  0.3 sec)

Property integrals calculated in   0.3 sec

Maximum memory used throughout the entire PROPINT-calculation: 92.8 MB

-------------------------   --------------------
FINAL SINGLE POINT ENERGY      -928.357868470279
-------------------------   --------------------

------------------------------------------------------------------------------
                         ORCA SCF GRADIENT CALCULATION
------------------------------------------------------------------------------

Nuc. rep. gradient        (SHARK) ... done (  0.0 sec)
HCore & Overlap gradient  (SHARK) ... done (  1.4 sec)
Split-RIJ-J gradient      (SHARK) ... done ( 11.3 sec)
COSX-gradient                     ... done (220.6 sec)
XC gradient                       ... done ( 21.8 sec)

------------------
CARTESIAN GRADIENT
------------------

   1   F   :   -0.004899866    0.001880232    0.001707555
   2   F   :   -0.002445467    0.003786443   -0.001976616
   3   F   :    0.003880468   -0.000462722   -0.000245832
   4   F   :    0.001281654    0.005370521   -0.001176913
   5   F   :    0.002212484   -0.000242177    0.004104440
   6   F   :   -0.006509448   -0.001391287   -0.000169331
   7   F   :    0.002218418    0.004795463   -0.002244288
   8   O   :   -0.032741604    0.006685995    0.001591858
   9   C   :    0.045142834   -0.004075754    0.004693516
  10   C   :   -0.005021874    0.014457744    0.008340513
  11   C   :   -0.015133186   -0.019064577   -0.008113347
  12   C   :    0.001851312   -0.010006443   -0.006503037
  13   H   :    0.004262701   -0.002915841    0.001040412
  14   H   :    0.003941577   -0.001042479   -0.002609138
  15   H   :    0.001959999    0.002224882    0.001560207

Difference to translation invariance:
           :    0.0000000000    0.0000000000   -0.0000000001

Difference to rotation invariance:
           :   -0.0003942087    0.0001039513    0.0003873630

Norm of the Cartesian gradient     ...    0.0675803924
RMS gradient                       ...    0.0100742901
MAX gradient                       ...    0.0451428339

-------
TIMINGS
-------

Total SCF gradient time     ....      255.001 sec

Densities                   ....       0.010 sec  (  0.0%)
One electron gradient       ....       1.411 sec  (  0.6%)
RI-J Coulomb gradient       ....      11.254 sec  (  4.4%)
COSX gradient               ....     220.569 sec  ( 86.5%)
XC gradient                 ....      21.754 sec  (  8.5%)

Maximum memory used throughout the entire SCFGRAD-calculation: 144.9 MB
------------------------------------------------------------------------------
                         ORCA GEOMETRY RELAXATION STEP
------------------------------------------------------------------------------

Reading the OPT-File                    .... done
Getting information on internals        .... done
Copying old internal coords+grads       .... done
Making the new internal coordinates     .... (2022 redundants) done
Validating the new internal coordinates .... (2022 redundants) done
Calculating the B-matrix                .... done
Calculating the G,G- and P matrices     .... done
Transforming gradient to internals      .... done
Projecting the internal gradient        .... done
Number of atoms                         ....  15
Number of internal coordinates          ....  57
Current Energy                          ....  -928.357868470 Eh
Current gradient norm                   ....     0.067580392 Eh/bohr
Maximum allowed component of the step   ....  0.300
Current trust radius                    ....  0.300
Evaluating the initial hessian          ....  (Almloef) done
Projecting the Hessian                  .... done
Forming the augmented Hessian           .... done
Diagonalizing the augmented Hessian     .... done
Last element of RFO vector              ....  0.992472169
Lowest eigenvalues of augmented Hessian:
 -0.005411212  0.013129902  0.013286952  0.019617831  0.019753206
Length of the computed step             ....  0.123399305
The final length of the internal step   ....  0.123399305
Converting the step to Cartesian space:
 Initial RMS(Int)=    0.0163446372
Transforming coordinates:
 Iter   0:  RMS(Cart)=    0.0548533433 RMS(Int)=    0.8315203642
done
Storing new coordinates                 .... done

                                .--------------------.
          ----------------------|Geometry convergence|-------------------------
          Item                value                   Tolerance       Converged
          ---------------------------------------------------------------------
          RMS gradient        0.0063099488            0.0001000000      NO
          MAX gradient        0.0315234219            0.0003000000      NO
          RMS step            0.0163446372            0.0020000000      NO
          MAX step            0.0626005224            0.0040000000      NO
          -------------------------------------------------------------------------
          ........................................................
          Max(Bonds)      0.0331      Max(Angles)    1.75
          Max(Dihed)        1.66      Max(Improp)    0.00
          ---------------------------------------------------------------------

The optimization has not yet converged - more geometry cycles are needed


    ---------------------------------------------------------------------------
                         Redundant Internal Coordinates
                            (Angstroem and degrees)

        Definition                    Value    dE/dq     Step     New-Value
    ----------------------------------------------------------------------------
     1. B(C   8,F   1)                1.3540  0.001135 -0.0010    1.3530   
     2. B(C   8,O   7)                1.4217  0.031523 -0.0331    1.3885   
     3. B(C   8,F   0)                1.3549 -0.001121  0.0010    1.3559   
     4. B(C   9,O   7)                1.4207 -0.004961  0.0052    1.4259   
     5. B(C  10,F   3)                1.3556 -0.000829  0.0007    1.3563   
     6. B(C  10,C   8)                1.5052 -0.015654  0.0200    1.5252   
     7. B(C  10,F   2)                1.3560 -0.000395  0.0004    1.3563   
     8. B(C  11,F   6)                1.3498  0.005210 -0.0045    1.3452   
[...]
freq.     246.92  E(vib)   ...       0.35 
freq.     308.49  E(vib)   ...       0.29 
freq.     352.16  E(vib)   ...       0.26 
freq.     387.76  E(vib)   ...       0.24 
freq.     433.09  E(vib)   ...       0.21 
freq.     517.19  E(vib)   ...       0.16 
freq.     531.06  E(vib)   ...       0.15 
freq.     542.20  E(vib)   ...       0.15 
freq.     581.24  E(vib)   ...       0.13 
freq.     588.74  E(vib)   ...       0.13 
freq.     646.87  E(vib)   ...       0.11 
freq.     771.30  E(vib)   ...       0.07 
freq.     840.31  E(vib)   ...       0.06 
freq.     871.92  E(vib)   ...       0.05 
freq.     969.48  E(vib)   ...       0.04 
freq.    1038.43  E(vib)   ...       0.03 
freq.    1087.29  E(vib)   ...       0.02 
freq.    1121.12  E(vib)   ...       0.02 
freq.    1134.60  E(vib)   ...       0.02 
freq.    1157.69  E(vib)   ...       0.02 
freq.    1172.49  E(vib)   ...       0.02 
freq.    1195.63  E(vib)   ...       0.02 
freq.    1281.39  E(vib)   ...       0.01 
freq.    1288.17  E(vib)   ...       0.01 
freq.    1305.05  E(vib)   ...       0.01 
freq.    1365.92  E(vib)   ...       0.01 
freq.    1416.08  E(vib)   ...       0.01 
freq.    1448.49  E(vib)   ...       0.01 
freq.    1499.14  E(vib)   ...       0.01 
freq.    3067.68  E(vib)   ...       0.00 
freq.    3093.13  E(vib)   ...       0.00 
freq.    3123.93  E(vib)   ...       0.00 

------------
INNER ENERGY
------------

The inner energy is: U= E(el) + E(ZPE) + E(vib) + E(rot) + E(trans)
    E(el)   - is the total energy from the electronic structure calculation
              = E(kin-el) + E(nuc-el) + E(el-el) + E(nuc-nuc)
    E(ZPE)  - the the zero temperature vibrational energy from the frequency calculation
    E(vib)  - the the finite temperature correction to E(ZPE) due to population
              of excited vibrational states
    E(rot)  - is the rotational thermal energy
    E(trans)- is the translational thermal energy

Summary of contributions to the inner energy U:
Electronic energy                ...   -928.36296002 Eh
Zero point energy                ...      0.08233750 Eh      51.67 kcal/mol
Thermal vibrational correction   ...      0.00969283 Eh       6.08 kcal/mol
Thermal rotational correction    ...      0.00152006 Eh       0.95 kcal/mol
Thermal translational correction ...      0.00152006 Eh       0.95 kcal/mol
-----------------------------------------------------------------------
Total thermal energy                   -928.26788956 Eh


Summary of corrections to the electronic energy:
(perhaps to be used in another calculation)
Total thermal correction                  0.01273296 Eh       7.99 kcal/mol
Non-thermal (ZPE) correction              0.08233750 Eh      51.67 kcal/mol
-----------------------------------------------------------------------
Total correction                          0.09507046 Eh      59.66 kcal/mol


--------
ENTHALPY
--------

The enthalpy is H = U + kB*T
                kB is Boltzmann's constant
Total thermal energy              ...   -928.26788956 Eh 
Thermal Enthalpy correction       ...      0.00101341 Eh       0.64 kcal/mol
-----------------------------------------------------------------------
Total Enthalpy                    ...   -928.26687616 Eh


Note: Only C1 symmetry has been detected, increase convergence thresholds 
      if your molecule has a higher symmetry. Symmetry factor of 1.0 is   
      used for the rotational entropy correction. 
 

Note: Rotational entropy computed according to Herzberg 
Infrared and Raman Spectra, Chapter V,1, Van Nostrand Reinhold, 1945 
Point Group:  C1, Symmetry Number:   1  
Rotational constants in cm-1:     0.062865     0.014919     0.014061 

Vibrational entropy computed according to the QRRHO of S. Grimme
Chem.Eur.J. 2012 18 9955 using a reference frequency of 100.0 cm-1


-------
ENTROPY
-------

The entropy contributions are T*S = T*(S(el)+S(vib)+S(rot)+S(trans))
     S(el)   - electronic entropy
     S(vib)  - vibrational entropy
     S(rot)  - rotational entropy
     S(trans)- translational entropy
The entropies will be listed as multiplied by the temperature to get
units of energy

Electronic entropy                ...      0.00000000 Eh      0.00 kcal/mol
Vibrational entropy               ...      0.01780524 Eh     11.17 kcal/mol
Rotational entropy                ...      0.01600856 Eh     10.05 kcal/mol
Translational entropy             ...      0.02148743 Eh     13.48 kcal/mol
-----------------------------------------------------------------------
Final entropy term                ...      0.05530123 Eh     34.70 kcal/mol

In case the symmetry of your molecule has not been determined correctly
or in case you have a reason to use a different symmetry number we print 
out the resulting rotational entropy values for sn=1,12:

 non-linear molecules -----------------------------------
|  sn= 1 | S(rot)=       0.01600856 Eh     10.05 kcal/mol|
|  sn= 2 | S(rot)=       0.01530614 Eh      9.60 kcal/mol|
|  sn= 3 | S(rot)=       0.01489525 Eh      9.35 kcal/mol|
|  sn= 4 | S(rot)=       0.01460372 Eh      9.16 kcal/mol|
|  sn= 5 | S(rot)=       0.01437759 Eh      9.02 kcal/mol|
|  sn= 6 | S(rot)=       0.01419283 Eh      8.91 kcal/mol|
|  sn= 7 | S(rot)=       0.01403662 Eh      8.81 kcal/mol|
|  sn= 8 | S(rot)=       0.01390130 Eh      8.72 kcal/mol|
|  sn= 9 | S(rot)=       0.01378194 Eh      8.65 kcal/mol|
|  sn=10 | S(rot)=       0.01367517 Eh      8.58 kcal/mol|
|  sn=11 | S(rot)=       0.01357859 Eh      8.52 kcal/mol|
|  sn=12 | S(rot)=       0.01349041 Eh      8.47 kcal/mol|
 linear molecules ---------------------------------------
|  Dinfh | S(rot)=       0.01010915 Eh      6.34 kcal/mol|
|  Cinfv | S(rot)=       0.01081157 Eh      6.78 kcal/mol|
 --------------------------------------------------------


-------------------
GIBBS FREE ENERGY
-------------------

The Gibbs free energy is G = H - T*S

Total enthalpy                    ...   -928.26687616 Eh 
Total entropy correction          ...     -0.05530123 Eh    -34.70 kcal/mol
-----------------------------------------------------------------------
Final Gibbs free energy         ...   -928.32217739 Eh

For completeness - the Gibbs free energy minus the electronic energy
G-E(el)                           ...      0.04078263 Eh     25.59 kcal/mol


The first frequency considered to be a vibration is 6
The total number of vibrations considered is 39


--------------------------
THERMOCHEMISTRY AT 340.00K
--------------------------

Temperature         ...   340.00 K
Pressure            ...     1.00 atm
Total Mass          ...   200.05 AMU
Quasi RRHO          ...     True
Cut-Off Frequency   ...     1.00 cm^-1

Throughout the following assumptions are being made:
  (1) The electronic state is orbitally nondegenerate
  (2) There are no thermally accessible electronically excited states
  (3) Hindered rotations indicated by low frequency modes are not
      treated as such but are treated as vibrations and this may
      cause some error
  (4) All equations used are the standard statistical mechanics
      equations for an ideal gas
  (5) All vibrations are strictly harmonic

freq.      12.39  E(vib)   ...       0.66 
freq.      43.05  E(vib)   ...       0.62 
freq.      69.89  E(vib)   ...       0.58 
freq.      85.86  E(vib)   ...       0.56 
freq.     130.70  E(vib)   ...       0.51 
freq.     191.99  E(vib)   ...       0.44 
freq.     223.13  E(vib)   ...       0.41 
freq.     246.92  E(vib)   ...       0.38 
freq.     308.49  E(vib)   ...       0.33 
freq.     352.16  E(vib)   ...       0.29 
freq.     387.76  E(vib)   ...       0.27 
freq.     433.09  E(vib)   ...       0.24 
freq.     517.19  E(vib)   ...       0.19 
freq.     531.06  E(vib)   ...       0.18 
freq.     542.20  E(vib)   ...       0.17 
freq.     581.24  E(vib)   ...       0.16 
freq.     588.74  E(vib)   ...       0.15 
freq.     646.87  E(vib)   ...       0.13 
freq.     771.30  E(vib)   ...       0.09 
freq.     840.31  E(vib)   ...       0.07 
freq.     871.92  E(vib)   ...       0.06 
freq.     969.48  E(vib)   ...       0.05 
freq.    1038.43  E(vib)   ...       0.04 
freq.    1087.29  E(vib)   ...       0.03 
freq.    1121.12  E(vib)   ...       0.03 
freq.    1134.60  E(vib)   ...       0.03 
freq.    1157.69  E(vib)   ...       0.02 
freq.    1172.49  E(vib)   ...       0.02 
freq.    1195.63  E(vib)   ...       0.02 
freq.    1281.39  E(vib)   ...       0.02 
freq.    1288.17  E(vib)   ...       0.02 
freq.    1305.05  E(vib)   ...       0.01 
freq.    1365.92  E(vib)   ...       0.01 
freq.    1416.08  E(vib)   ...       0.01 
freq.    1448.49  E(vib)   ...       0.01 
freq.    1499.14  E(vib)   ...       0.01 
freq.    3067.68  E(vib)   ...       0.00 
freq.    3093.13  E(vib)   ...       0.00 
freq.    3123.93  E(vib)   ...       0.00 

------------
INNER ENERGY
------------

The inner energy is: U= E(el) + E(ZPE) + E(vib) + E(rot) + E(trans)
    E(el)   - is the total energy from the electronic structure calculation
              = E(kin-el) + E(nuc-el) + E(el-el) + E(nuc-nuc)
    E(ZPE)  - the the zero temperature vibrational energy from the frequency calculation
    E(vib)  - the the finite temperature correction to E(ZPE) due to population
              of excited vibrational states
    E(rot)  - is the rotational thermal energy
    E(trans)- is the translational thermal energy

Summary of contributions to the inner energy U:
Electronic energy                ...   -928.36296002 Eh
Zero point energy                ...      0.08233750 Eh      51.67 kcal/mol
Thermal vibrational correction   ...      0.01082934 Eh       6.80 kcal/mol
Thermal rotational correction    ...      0.00161507 Eh       1.01 kcal/mol
Thermal translational correction ...      0.00161507 Eh       1.01 kcal/mol
-----------------------------------------------------------------------
Total thermal energy                   -928.26656305 Eh


Summary of corrections to the electronic energy:
(perhaps to be used in another calculation)
Total thermal correction                  0.01405948 Eh       8.82 kcal/mol
Non-thermal (ZPE) correction              0.08233750 Eh      51.67 kcal/mol
-----------------------------------------------------------------------
Total correction                          0.09639698 Eh      60.49 kcal/mol


--------
ENTHALPY
--------

The enthalpy is H = U + kB*T
                kB is Boltzmann's constant
Total thermal energy              ...   -928.26656305 Eh 
Thermal Enthalpy correction       ...      0.00107674 Eh       0.68 kcal/mol
-----------------------------------------------------------------------
Total Enthalpy                    ...   -928.26548630 Eh


Note: Only C1 symmetry has been detected, increase convergence thresholds 
      if your molecule has a higher symmetry. Symmetry factor of 1.0 is   
      used for the rotational entropy correction. 
 

Note: Rotational entropy computed according to Herzberg 
Infrared and Raman Spectra, Chapter V,1, Van Nostrand Reinhold, 1945 
Point Group:  C1, Symmetry Number:   1  
Rotational constants in cm-1:     0.062865     0.014919     0.014061 

Vibrational entropy computed according to the QRRHO of S. Grimme
Chem.Eur.J. 2012 18 9955 using a reference frequency of 100.0 cm-1


-------
ENTROPY
-------

The entropy contributions are T*S = T*(S(el)+S(vib)+S(rot)+S(trans))
     S(el)   - electronic entropy
     S(vib)  - vibrational entropy
     S(rot)  - rotational entropy
     S(trans)- translational entropy
The entropies will be listed as multiplied by the temperature to get
units of energy

Electronic entropy                ...      0.00000000 Eh      0.00 kcal/mol
Vibrational entropy               ...      0.01996628 Eh     12.53 kcal/mol
Rotational entropy                ...      0.01710701 Eh     10.73 kcal/mol
Translational entropy             ...      0.02299358 Eh     14.43 kcal/mol
-----------------------------------------------------------------------
Final entropy term                ...      0.06006687 Eh     37.69 kcal/mol

In case the symmetry of your molecule has not been determined correctly
or in case you have a reason to use a different symmetry number we print 
out the resulting rotational entropy values for sn=1,12:

 non-linear molecules -----------------------------------
|  sn= 1 | S(rot)=       0.01710701 Eh     10.73 kcal/mol|
|  sn= 2 | S(rot)=       0.01636069 Eh     10.27 kcal/mol|
|  sn= 3 | S(rot)=       0.01592412 Eh      9.99 kcal/mol|
|  sn= 4 | S(rot)=       0.01561437 Eh      9.80 kcal/mol|
|  sn= 5 | S(rot)=       0.01537411 Eh      9.65 kcal/mol|
|  sn= 6 | S(rot)=       0.01517780 Eh      9.52 kcal/mol|
|  sn= 7 | S(rot)=       0.01501182 Eh      9.42 kcal/mol|
|  sn= 8 | S(rot)=       0.01486805 Eh      9.33 kcal/mol|
|  sn= 9 | S(rot)=       0.01474123 Eh      9.25 kcal/mol|
|  sn=10 | S(rot)=       0.01462779 Eh      9.18 kcal/mol|
|  sn=11 | S(rot)=       0.01452516 Eh      9.11 kcal/mol|
|  sn=12 | S(rot)=       0.01443148 Eh      9.06 kcal/mol|
 linear molecules ---------------------------------------
|  Dinfh | S(rot)=       0.01080625 Eh      6.78 kcal/mol|
|  Cinfv | S(rot)=       0.01155257 Eh      7.25 kcal/mol|
 --------------------------------------------------------


-------------------
GIBBS FREE ENERGY
-------------------

The Gibbs free energy is G = H - T*S

Total enthalpy                    ...   -928.26548630 Eh 
Total entropy correction          ...     -0.06006687 Eh    -37.69 kcal/mol
-----------------------------------------------------------------------
Final Gibbs free energy         ...   -928.32555317 Eh

For completeness - the Gibbs free energy minus the electronic energy
G-E(el)                           ...      0.03740685 Eh     23.47 kcal/mol


Maximum memory used throughout the entire PROP-calculation: 245.8 MB

--------------------------------
SUGGESTED CITATIONS FOR THIS RUN
--------------------------------

Below you find a list of papers that are relevant to this ORCA run
We neither can nor want to force you to cite these papers, but we appreciate if you do
You receive ORCA, which is the product of decades of hard work by many enthusiastic individuals, for free
The only thing we kindly ask in return is that you cite our papers,
We deeply appreciate it, if you show your appreciation for ORCA by not just citing the generic ORCA reference.

Please note that relegating all ORCA citations to the supporting information does *not* help us.
SI sections are not indexed - citations you put there will not count into any citation statistics
But we need these citations in order to attract the funding resources that allow us to do what we are doing

Therefore, if you are a happy ORCA user, please consider citing a few of the papers listed below in the main body of your paper

In addition to the list printed below, the program has created the file HFE_347pcf2_anti.bibtex that contains the list in bibtex format
You can import this file easily into all common literature databanks and citation aid programs

It goes without saying that in many instances, there are alternative algorithms to achieve similar
results as the ones you have gotten from ORCA. It is, of course, also the case that in some instances
ORCA just re-implements algorithms worked out by others. We are fully aware of that and we are also
fully appreciative of our colleagues work. Hence this citation list should not be read as indicating
that the listed papers, which are focused on our own work, are the only ones worth citing. It simply
meant to make it easier for users to cite ORCA specific papers. It is not a substitute for doing your
own literature research and citing the relevant literature in a scientifically appropriate manner.

List of essential papers. We consider these as the minimum necessary citations

  1. Neese, F.
     Software update: the ORCA program system, version 6.0
     WIRES Comput. Molec. Sci. 2025 15(1), e70019
     doi.org/10.1002/wcms.70019

List of papers to cite with high priority. The work reported in these papers was absolutely
necessary for this run to complete.
Our perspective: the developers of density functionals and basis sets usually get cited in chemistry papers
Good! But without the algorithms to do something with them, the functionals or basis sets would not do anything.
Hence, in our opinion, the algorithm design and method developments papers are equally worthy of getting cited

  1. Neese, F.
     An improvement of the resolution of the identity approximation for the formation of the Coulomb matrix
     J. Comp. Chem. 2003 24(14), 1740-1747
     doi.org/10.1002/jcc.10318
  2. Neese, F.; Wennmohs, F.; Hansen, A.; Becker, U.
     Efficient, approximate and parallel Hartree-Fock and hybrid DFT calculations. A 'chain-of-spheres' algorithm for the Hartree-Fock exchange
     Chem. Phys. 2009 356(1-3), 98-109
     doi.org/10.1016/j.chemphys.2008.10.036
  3. Bykov, D.; Petrenko, T.; Izsak, R.; Kossmann, S.; Becker, U.; Valeev, E.; Neese, F.
     Efficient implementation of the analytic second derivatives of Hartree-Fock and hybrid DFT energies: a detailed analysis of different approximations
     Molec. Phys. 2015 113 , 1961-1977
     doi.org/10.1080/00268976.2015.1025114
  4. Helmich-Paris, B.; de Souza, B.; Neese, F.; Izsák, R.
     An improved chain of spheres for exchange algorithm
     J. Chem. Phys. 2021 155(10), 104109
     doi.org/10.1063/5.0058766
  5. Neese, F.
     The SHARK Integral Generation and Digestion System
     J. Comp. Chem. 2022 44(3), 381
     doi.org/10.1002/jcc.26942

List of suggested additional citations. These are papers that are important in the 'surrounding' of 
of this run, or papers that preceded the highly important papers. If you like your results we are grateful for a citation.

  1. Izsak, R.; Neese, F.
     An overlap fitted chain of spheres exchange method
     J. Chem. Phys. 2011 135 , 144105
     doi.org/10.1063/1.3646921
  2. Izsak, R.; Hansen, A.; Neese, F.
     The resolution of identity and chain of spheres approximations for the LPNO-CCSD singles Fock term
     Molec. Phys. 2012 110 , 2413-2417
     doi.org/10.1080/00268976.2012.687466
  3. Neese, F.
     The ORCA program system
     WIRES Comput. Molec. Sci. 2012 2(1), 73-78
     doi.org/10.1002/wcms.81
  4. Izsak, R.; Neese, F.; Klopper, W.
     Robust fitting techniques in the chain of spheres approximation to the Fock exchange: The role of the complementary space
     J. Chem. Phys. 2013 139 , 
     doi.org/10.1063/1.4819264
  5. Neese, F.
     Software update: the ORCA program system, version 4.0
     WIRES Comput. Molec. Sci. 2018 8(1), 1-6
     doi.org/10.1002/wcms.1327
  6. Neese, F.; Wennmohs, F.; Becker, U.; Riplinger, C.
     The ORCA quantum chemistry program package
     J. Chem. Phys. 2020 152(22), 224108
     doi.org/10.1063/5.0004608
  7. Neese, F.
     Software update: The ORCA program system—Version 5.0
     WIRES Comput. Molec. Sci. 2022 12(1), e1606
     doi.org/10.1002/wcms.1606

List of optional additional citations

  1. Neese, F.
     Approximate second-order SCF convergence for spin unrestricted wavefunctions
     Chem. Phys. Lett. 2000 325(1-3), 93-98
     doi.org/10.1016/s0009-2614(00)00662-x

Timings for individual modules:

Sum of individual times          ...    71225.073 sec (=1187.085 min)
Startup calculation              ...      172.612 sec (=   2.877 min)   0.2 %
SCF iterations                   ...    43521.815 sec (= 725.364 min)  61.1 %
Property integrals               ...     1835.685 sec (=  30.595 min)   2.6 %
SCF Response                     ...    20303.279 sec (= 338.388 min)  28.5 %
Property calculations            ...     1923.927 sec (=  32.065 min)   2.7 %
SCF Gradient evaluation          ...     3466.774 sec (=  57.780 min)   4.9 %
Geometry relaxation              ...        0.982 sec (=   0.016 min)   0.0 %
                             ****ORCA TERMINATED NORMALLY****
TOTAL RUN TIME: 0 days 19 hours 47 minutes 18 seconds 767 msec
