
                                 *****************
                                 * O   R   C   A *
                                 *****************

                                            #,                                       
                                            ###                                      
                                            ####                                     
                                            #####                                    
                                            ######                                   
                                           ########,                                 
                                     ,,################,,,,,                         
                               ,,#################################,,                 
                          ,,##########################################,,             
                       ,#########################################, ''#####,          
                    ,#############################################,,   '####,        
                  ,##################################################,,,,####,       
                ,###########''''           ''''###############################       
              ,#####''   ,,,,##########,,,,          '''####'''          '####       
            ,##' ,,,,###########################,,,                        '##       
           ' ,,###''''                  '''############,,,                           
         ,,##''                                '''############,,,,        ,,,,,,###''
      ,#''                                            '''#######################'''  
     '                                                          ''''####''''         
             ,#######,   #######,   ,#######,      ##                                
            ,#'     '#,  ##    ##  ,#'     '#,    #''#        ,####,    ,#,          
            ##       ##  ##   ,#'  ##            #'  '#       #'       ,# #          
            ##       ##  #######   ##           ,######,      #####,      #          
            '#,     ,#'  ##    ##  '#,     ,#' ,#      #,     #,   #      #          
             '#######'   ##     ##  '#######'  #'      '#     '####' #    #          



                #########################################################
                #                        -***-                          #
                #          Department of theory and spectroscopy        #
                #                                                       #
                #                      Frank Neese                      #
                #                                                       #
                #     Directorship, Architecture, Infrastructure        #
                #                    SHARK, DRIVERS                     #
                #        Core code/Algorithms in most modules           #
                #                                                       #
                #        Max Planck Institute fuer Kohlenforschung      #
                #                Kaiser Wilhelm Platz 1                 #
                #                 D-45470 Muelheim/Ruhr                 #
                #                      Germany                          #
                #                                                       #
                #                  All rights reserved                  #
                #                        -***-                          #
                #########################################################


                         Program Version 6.1.1  -  RELEASE   -
                                (GIT: $487d211c$)
                          ($2025-11-21 10:33:24 +0100$)


 With contributions from (in alphabetic order):
[Max-Planck-Institut fuer Kohlenforschung]                               
  Daniel Aravena         : Magnetic Suceptibility                        
  Michael Atanasov       : Ab Initio Ligand Field Theory (pilot matlab implementation)
  Alexander A. Auer      : GIAO ZORA, VPT2 properties, NMR spectrum      
  Ute Becker             : All parallelization in ORCA, NUMFREQ, NUMCALC 
  Giovanni Bistoni       : ED, misc. LED, open-shell LED, HFLD           
  Dmytro Bykov           : pre 5.0 version of the SCF Hessian            
  Marcos Casanova-Páez   : Triplet and SCS-CIS(D). UHF-(DLPNO)-IP/EA/STEOM-CCSD. UHF-CVS-IP/STEOM-CCSD   
  Vijay G. Chilkuri      : MRCI spin determinant printing, contributions to CSF-ICE 
  Pauline Colinet        : FMM embedding                                 
  Dipayan Datta          : RHF DLPNO-CCSD density                        
  Achintya Kumar Dutta   : EOM-CC, STEOM-CC                              
  Nicolas Foglia         : Exact transition moments, OPA infrastructure, MCD improvements    
  Dmitry Ganyushin       : Spin-Orbit,Spin-Spin,Magnetic field MRCI      
  Miquel Garcia-Rates    : C-PCM and meta-GGA Hessian, CCSD/C-PCM, Gaussian charge scheme 
  Tiago L. C. Gouveia    : GS-ROHF, GS-ROCIS                             
  Yang Guo               : DLPNO-NEVPT2, F12-NEVPT2, CIM, IAO-localization        
  Andreas Hansen         : Spin unrestricted coupled pair/coupled cluster methods 
  Ingolf Harden          : AUTO-CI MPn and infrastructure                
  Benjamin Helmich-Paris : MC-RPA, TRAH-(SCF,CASSCF), AVAS, COSX integrals, SCF dyn. polar., MC-PDFT, srDFT 
  Lee Huntington         : MR-EOM, pCC                                   
  Robert Izsak           : Overlap fitted RIJCOSX, COSX-SCS-MP3, EOM     
  Riya Kayal             : Wick's Theorem for AUTO-CI, AUTO-CI UHF-CCSDT 
  Emily Kempfer          : AUTO-CI RHF CISDT and CCSDT, approximate NEVPT4
  Christian Kollmar      : KDIIS, OOCD, Brueckner-CCSD(T), CCSD density, CASPT2, CASPT2-K, improved NEVPT2 
  Axel Koslowski         : Symmetry handling                             
  Simone Kossmann        : meta-GGA functionals, TD-DFT gradient, OOMP2, (MP2 Hessian; deprecated post 5.0) 
  Lucas Lang             : DCDCAS, Hyperfine gauge corrections, ICE-SOC+SSC
  Marvin Lechner         : AUTO-CI (C++ implementation), FIC-MRCC        
  Spencer Leger          : CASSCF response                               
  Dagmar Lenk            : GEPOL surface, SMD, ORCA-2-JSON               
  Dimitrios Liakos       : Extrapolation schemes; Compound Job, Property file
  Dimitrios Manganas     : Further ROCIS development; embedding schemes. LFT, Crystal Embedding 
  Dimitrios Pantazis     : SARC Basis sets                               
  Anastasios Papadopoulos: AUTO-CI, single reference methods and gradients 
  Taras Petrenko         : pre 6.0 DFT Hessian and TD-DFT gradient,  ECA, NRVS 
  Petra Pikulova         : Analytic Raman intensities                    
  Peter Pinski           : DLPNO-MP2, DLPNO-MP2 Gradient                 
  Shashank Vittal Rao    : ES-AILFT, MagRelax                            
  Christoph Reimann      : Effective Core Potentials                     
  Marius Retegan         : Local ZFS, SOC                                
  Christoph Riplinger    : Optimizer, TS searches, QM/MM, DLPNO-CCSD(T), (RO)-DLPNO pert. Triples 
  Michael Roemelt        : Original ROCIS implementation, recursive CI coupling coefficients
  Masaaki Saitow         : Open-shell DLPNO-CCSD energy and density      
  Barbara Sandhoefer     : DKH picture change effects                    
  Yorick L. A. Schmerwitz: GMF and freeze-and-release deltaSCF, NEB S-IDPP initial path                    
  Kantharuban Sivalingam : CASSCF convergence/infrastructure, NEVPT2, NEVPT3, NEVPT4(SD), FIC-MRCI and CEPA variants
  Bernardo de Souza      : ESD, SOC TD-DFT                               
  Georgi L. Stoychev     : AutoAux, RI-MP2 NMR, DLPNO-MP2 response, X2C  
  Van Anh Tran           : RI-MP2 g-tensors                              
  Willem Van den Heuvel  : Paramagnetic NMR                              
  Zikuan Wang            : NOTCH, Electric field optimization            
  Frank Wennmohs         : Technical directorship and infrastructure     
  Hang Xu                : AUTO-CI-Response properties                   
                                                                         
[FACCTs GmbH]                                                            
  Markus Bursch, Nicolas Foglia, Miquel Garcia-Rates, Ingolf Harden, Hagen Neugebauer, Anastasios Papadopoulos, 
  Christoph Riplinger, Bernardo de Souza, Georgi L. Stoychev                                                    
                                                                 
  APM, various basis sets, CI-OPT, improved COSX, DLPNO-Multilevel,           
  DOCKER, DRACO, updates on ESD, Fragmentator, GOAT, IRC, LR-CPCM, L-BFGS, MBIS, meta-GGA TD-DFT gradient, ML-optimized integration grids, 
  MM, NACMEs, nearIR, NEB, NEB-TS, NL-DFT gradient (VV10), 2- and 3-layer-ONIOM, interface openCOSMO-RS, QMMM,   
  Crystal-QMMM, RESP, rigid body optimization, SF, symmetry and pop. for TD-DFT, various functionals, SOLVATOR                                   
                                                                         
[Other institutions]                                                     
  V. Asgeirsson          : NEB                                           
  Christoph Bannwarth    : sTDA-DFT, sTD-DFT, PBEh-3c, B97-3c, D3        
  Giovanni Bistoni       : ETS/NOCV, ADLD/ADEX, COVALED                  
  Martin Brehm           : Molecular dynamics                            
  Ronald Cardenas        : ETS/NOCV                                      
  Martina Colucci        : COVALED                                       
  Sebastian Ehlert       : rSCAN, r2SCAN, r2SCAN-3c, D4, dhf basis sets  
  Marvin Friede          : D4 for Fr, Ra, Ac-Lr                          
  Lars Goerigk           : TD-DFT with DH, B97 family of functionals     
  Stefan Grimme          : VdW corrections, initial TS optimization, DFT functionals, gCP, sTDA/sTD-DF 
  Waldemar Hujo          : DFT-NL                                        
  H. Jonsson             : NEB                                           
  Holger Kruse           : gCP                                           
  Marcel Mueller         : wB97X-3c, vDZP basis set                      
  Hagen Neugebauer       : wr2SCAN, Native XTB                           
  Gianluca Regni         : ADLD/ADEX                                     
  Tobias Risthaus        : pre 6.0 range-separated hybrid DFT and stability analysis
  Lukas Wittmann         : regularized MP2, r2SCAN double-hybrids, wr2SCAN        
                                                                         
We gratefully acknowledge several colleagues who have allowed us to      
interface, adapt or use parts of their codes:                            
  Ed Valeev, F. Pavosevic, A. Kumar             : LibInt (2-el integral package), F12 methods 
  Garnet Chan, S. Sharma, J. Yang, R. Olivares  : DMRG                   
  Ulf Ekstrom                                   : XCFun DFT Library      
  Mihaly Kallay                                 : mrcc  (arbitrary order and MRCC methods)
  Frank Weinhold                                : gennbo (NPA and NBO analysis)           
  Simon Mueller                                 : openCOSMO-RS                            
  Christopher J. Cramer and Donald G. Truhlar   : smd solvation model                     
  S Lehtola, MJT Oliveira, MAL Marques          : LibXC Library                           
  Liviu Ungur et al                             : ANISO software                          


 Your calculation uses the libint2 library for the computation of 2-el integrals
 For citations please refer to: http://libint.valeyev.net

 Your ORCA version has been built with support for libXC version: 7.0.0
 For citations please refer to: https://libxc.gitlab.io

 This ORCA versions uses:
   CBLAS   interface :  Fast vector & matrix operations
   LAPACKE interface :  Fast linear algebra routines
   SCALAPACK package :  Parallel linear algebra routines
   Shared memory     :  Shared parallel matrices
   BLAS/LAPACK       :  OpenBLAS 0.3.29  USE64BITINT DYNAMIC_ARCH NO_AFFINITY Cooperlake SINGLE_THREADED
        Core in use  :  Cooperlake
   Copyright (c) 2011-2014, The OpenBLAS Project


  ***********************************
  * Starting time: Wed Feb 18 12:09:31 2026
  * Host name:     Breado
  * Process ID:    14216
  * Working dir.:  /home/bread/other_data/B3LYP_6-311+G2dp
  ***********************************

Warning: RI is on but no J-basis has been assigned. Assigning Def2/J (nothing to worry about!)
================================================================================

----- Orbital basis set information -----
Your calculation utilizes the basis: 6-311+G(2d,p)
   H, Li - Ne  : R. Krishnan, J. S. Binkley, R. Seeger and J. A. Pople, J. Chem. Phys. 72, 650 (1980).
   Na - Ar     : A. D. McLean and G. S. Chandler J. Chem. Phys. 72, 5639, (1980).
   K  - Ca     : J.-P. Blaudeau, M. P. McGrath, L. A. Curtiss and L. Radom, J. Chem. Phys. 107, 5016 (1997).
   Ga - Kr     : L. A. Curtiss, M. P. McGrath, J.-P. Blandeau, N. E. Davis, R. C. Binning and L. Radom, J. Chem. Phys. 103, 6104 (1995).
   Pol./Diff.
   H, Li - Cl  : T. Clark, J. Chandrasekhar and P. v. R. Schleyer, J. Comp. Chem. 4, 294 (1983).
   H - Ne      : M. J. Frisch, J. A. Pople and J. S. Binkley, J. Chem. Phys. 80, 3265 (1984).

----- AuxJ basis set information -----
Your calculation utilizes the auxiliary basis: def2/J
   H-Rn: F. Weigend, Phys. Chem. Chem. Phys. 8, 1057 (2006).
   Fr-Lr: K. Eichkorn, F. Weigend, O. Treutler, R. Ahlrichs; Theor. Chem. Acc. 97, 119 (1997).

================================================================================
                                        WARNINGS
                       Please study these warnings very carefully!
================================================================================

WARNING: Old DensityContainer found on disk!
         Will remove this file - 
         If you want to keep old densities, please start your calculation with a different basename. 


WARNING: Geometry Optimization
  ===> : Switching off AutoStart
         For restart on a previous wavefunction, please use MOREAD

================================================================================
                                       INPUT FILE
================================================================================
NAME = HFE_347pcf2_anti.inp
|  1> # avogadro generated ORCA input file 
|  2> # Basic Mode
|  3> # 
|  4> ! B3LYP 6-311+G(2d,p) OPT FREQ 
|  5> % FREQ TEMP 305, 320, 340 END
|  6> 
|  7> * xyz 0 1
|  8>    F        1.28530       -1.62240        0.56030
|  9>    F        1.38880       -0.59790       -1.37380
| 10>    F        2.29800        1.67070       -0.14090
| 11>    F        3.53230       -0.08800        0.20960
| 12>    F       -2.56250        0.28010        1.34490
| 13>    F       -3.46870       -0.64150       -0.41230
| 14>    F       -2.46550        1.29230       -0.58450
| 15>    O       -0.03940        0.17810        0.20870
| 16>    C        1.23030       -0.41010       -0.04230
| 17>    C       -1.11330       -0.61630       -0.27520
| 18>    C        2.32920        0.47050        0.48930
| 19>    C       -2.41470        0.08470        0.01630
| 20>    H       -1.10420       -1.59410        0.21820
| 21>    H       -1.01120       -0.76410       -1.35560
| 22>    H        2.25350        0.63630        1.56730
| 23> *
| 24> 
| 25> 
| 26>                          ****END OF INPUT****
================================================================================

                       *****************************
                       * Geometry Optimization Run *
                       *****************************

Geometry optimization settings:
Update method            Update   .... BFGS
Choice of coordinates    CoordSys .... (2022) Redundant Internals
Initial Hessian          InHess   .... Almloef's Model
Max. no of cycles        MaxIter  .... 50

Convergence Tolerances:
Energy Change            TolE     ....  5.0000e-06 Eh
Max. Gradient            TolMAXG  ....  3.0000e-04 Eh/bohr
RMS Gradient             TolRMSG  ....  1.0000e-04 Eh/bohr
Max. Displacement        TolMAXD  ....  4.0000e-03 bohr
RMS Displacement         TolRMSD  ....  2.0000e-03 bohr
Strict Convergence                .... False

------------------------------------------------------------------------------
                        ORCA OPTIMIZATION COORDINATE SETUP
------------------------------------------------------------------------------

The optimization will be done in redundant internal coordinates (2022)
Making redundant internal coordinates   ...  (2022 redundants) done
Evaluating the initial hessian          ...  (Almloef) done
Evaluating the coordinates              ...  done
Calculating the B-matrix                .... done
Calculating the G-matrix                .... done
The number of degrees of freedom        ....   57

    -----------------------------------------------------------------
                    Redundant Internal Coordinates


    -----------------------------------------------------------------
         Definition                    Initial Value    Approx d2E/dq
    -----------------------------------------------------------------
      1. B(C   8,F   1)                  1.3540         0.593501   
      2. B(C   8,O   7)                  1.4217         0.498154   
      3. B(C   8,F   0)                  1.3549         0.591461   
      4. B(C   9,O   7)                  1.4207         0.499848   
      5. B(C  10,F   3)                  1.3556         0.590035   
      6. B(C  10,C   8)                  1.5052         0.409204   
      7. B(C  10,F   2)                  1.3560         0.589235   
      8. B(C  11,F   6)                  1.3498         0.602802   
      9. B(C  11,F   5)                  1.3498         0.602686   
     10. B(C  11,C   9)                  1.5067         0.407024   
     11. B(C  11,F   4)                  1.3510         0.600049   
     12. B(H  12,C   9)                  1.0953         0.353194   
     13. B(H  13,C   9)                  1.0952         0.353245   
     14. B(H  14,C  10)                  1.0933         0.355761   
     15. A(C   8,O   7,C   9)          112.5571         0.396640   
     16. A(F   1,C   8,C  10)          110.0593         0.395722   
     17. A(F   1,C   8,O   7)          109.6064         0.407047   
     18. A(O   7,C   8,C  10)          110.3420         0.385457   
     19. A(F   0,C   8,C  10)          109.6787         0.395483   
     20. A(F   0,C   8,F   1)          107.9693         0.417803   
     21. A(F   0,C   8,O   7)          109.1426         0.406799   
     22. A(H  12,C   9,H  13)          108.8524         0.289084   
     23. A(C  11,C   9,H  13)          109.5217         0.327889   
     24. A(O   7,C   9,H  13)          109.9364         0.337200   
     25. A(C  11,C   9,H  12)          109.5961         0.327881   
     26. A(O   7,C   9,H  12)          109.8442         0.337192   
     27. A(O   7,C   9,C  11)          109.0777         0.385327   
     28. A(F   3,C  10,H  14)          109.1096         0.345669   
     29. A(F   2,C  10,H  14)          108.8104         0.345590   
     30. A(F   2,C  10,F   3)          106.8101         0.417087   
     31. A(F   3,C  10,C   8)          109.5141         0.395316   
     32. A(C   8,C  10,H  14)          112.7309         0.328563   
     33. A(F   2,C  10,C   8)          109.6878         0.395222   
     34. A(F   4,C  11,C   9)          110.6131         0.396113   
     35. A(F   5,C  11,F   6)          108.0963         0.420369   
     36. A(F   4,C  11,F   6)          107.7112         0.420040   
     37. A(F   4,C  11,F   5)          107.7371         0.420026   
     38. A(F   6,C  11,C   9)          111.2635         0.396432   
     39. A(F   5,C  11,C   9)          111.2676         0.396418   
     40. D(F   1,C   8,O   7,C   9)     58.6402         0.019614   
     41. D(F   0,C   8,O   7,C   9)    -59.4143         0.019614   
     42. D(C  10,C   8,O   7,C   9)    179.9982         0.019614   
     43. D(H  13,C   9,O   7,C   8)    -59.2366         0.019752   
     44. D(H  12,C   9,O   7,C   8)     60.5210         0.019752   
     45. D(C  11,C   9,O   7,C   8)   -179.3404         0.019752   
     46. D(F   2,C  10,C   8,F   0)    178.2766         0.013266   
     47. D(F   3,C  10,C   8,O   7)   -178.3733         0.013266   
     48. D(F   3,C  10,C   8,F   1)    -57.2848         0.013266   
     49. D(F   3,C  10,C   8,F   0)     61.3607         0.013266   
     50. D(F   2,C  10,C   8,O   7)    -61.4574         0.013266   
     51. D(F   2,C  10,C   8,F   1)     59.6311         0.013266   
     52. D(F   4,C  11,C   9,H  13)   -179.9158         0.013129   
     53. D(F   4,C  11,C   9,H  12)     60.7346         0.013129   
     54. D(F   4,C  11,C   9,O   7)    -59.5568         0.013129   
     55. D(F   5,C  11,C   9,H  13)     60.3697         0.013129   
     56. D(F   5,C  11,C   9,H  12)    -58.9800         0.013129   
     57. D(F   5,C  11,C   9,O   7)   -179.2714         0.013129   
    -----------------------------------------------------------------

Number of atoms                         .... 15
Number of degrees of freedom            .... 57


         *************************************************************
         *                GEOMETRY OPTIMIZATION CYCLE   1            *
         *************************************************************
---------------------------------
CARTESIAN COORDINATES (ANGSTROEM)
---------------------------------
  F      1.285300   -1.622400    0.560300
  F      1.388800   -0.597900   -1.373800
  F      2.298000    1.670700   -0.140900
  F      3.532300   -0.088000    0.209600
  F     -2.562500    0.280100    1.344900
  F     -3.468700   -0.641500   -0.412300
  F     -2.465500    1.292300   -0.584500
  O     -0.039400    0.178100    0.208700
  C      1.230300   -0.410100   -0.042300
  C     -1.113300   -0.616300   -0.275200
  C      2.329200    0.470500    0.489300
  C     -2.414700    0.084700    0.016300
  H     -1.104200   -1.594100    0.218200
  H     -1.011200   -0.764100   -1.355600
  H      2.253500    0.636300    1.567300

----------------------------
CARTESIAN COORDINATES (A.U.)
----------------------------
  NO LB      ZA    FRAG     MASS         X           Y           Z
   0 F     9.0000    0    18.998    2.428865   -3.065892    1.058814
   1 F     9.0000    0    18.998    2.624452   -1.129867   -2.596106
   2 F     9.0000    0    18.998    4.342591    3.157165   -0.266262
   3 F     9.0000    0    18.998    6.675080   -0.166296    0.396087
   4 F     9.0000    0    18.998   -4.842423    0.529312    2.541493
   5 F     9.0000    0    18.998   -6.554893   -1.212259   -0.779134
   6 F     9.0000    0    18.998   -4.659120    2.442093   -1.104545
   7 O     8.0000    0    15.999   -0.074455    0.336560    0.394386
   8 C     6.0000    0    12.011    2.324930   -0.774977   -0.079935
   9 C     6.0000    0    12.011   -2.103832   -1.164638   -0.520053
  10 C     6.0000    0    12.011    4.401550    0.889116    0.924643
  11 C     6.0000    0    12.011   -4.563122    0.160060    0.030803
  12 H     1.0000    0     1.008   -2.086636   -3.012412    0.412338
  13 H     1.0000    0     1.008   -1.910891   -1.443940   -2.561713
  14 H     1.0000    0     1.008    4.258498    1.202433    2.961768

--------------------------------
INTERNAL COORDINATES (ANGSTROEM)
--------------------------------
 F      0   0   0     0.000000000000     0.00000000     0.00000000
 F      1   0   0     2.191131057240     0.00000000     0.00000000
 F      2   1   0     2.737377031028    90.32221911     0.00000000
 F      3   2   1     2.177009974713    65.87822430    57.47134963
 F      1   2   3     4.363561418154    89.80003295    81.40692274
 F      5   1   2     2.181352066953    92.13639085    60.38889849
 F      5   1   2     2.180949838946    90.23279504     0.27539853
 O      1   2   3     2.262797582640    61.21372454    63.40901423
 C      2   1   3     1.353987939385    36.02974168   332.88082369
 C      8   1   2     1.420736351333    92.89588178    91.36341887
 C      4   3   2     1.355582513165    36.60073560   290.26676087
 C      7   5   1     1.349755177801    36.16371501    54.82331469
 H     10   8   1     1.095271295159   109.84416045    31.33842367
 H     10   8   1     1.095232126081   109.93641604   271.58082554
 H     11   4   3     1.093299652428   109.10960233   242.53891516

---------------------------
INTERNAL COORDINATES (A.U.)
---------------------------
 F      0   0   0     0.000000000000     0.00000000     0.00000000
 F      1   0   0     4.140637621712     0.00000000     0.00000000
 F      2   1   0     5.172892913929    90.32221911     0.00000000
 F      3   2   1     4.113952643022    65.87822430    57.47134963
 F      1   2   3     8.245936048856    89.80003295    81.40692274
 F      5   1   2     4.122158008204    92.13639085    60.38889849
 F      5   1   2     4.121397907428    90.23279504     0.27539853
 O      1   2   3     4.276067727688    61.21372454    63.40901423
 C      2   1   3     2.558666394070    36.02974168   332.88082369
 C      8   1   2     2.684802612527    92.89588178    91.36341887
 C      4   3   2     2.561679701815    36.60073560   290.26676087
 C      7   5   1     2.550667633886    36.16371501    54.82331469
 H     10   8   1     2.069762790196   109.84416045    31.33842367
 H     10   8   1     2.069688771365   109.93641604   271.58082554
 H     11   4   3     2.066036925401   109.10960233   242.53891516

---------------------
BASIS SET INFORMATION
---------------------
There are 4 groups of distinct atoms

 Group   1 Type F   : 12s6p2d contracted to 5s4p2d pattern {63111/3111/11}
 Group   2 Type O   : 12s6p2d contracted to 5s4p2d pattern {63111/3111/11}
 Group   3 Type C   : 12s6p2d contracted to 5s4p2d pattern {63111/3111/11}
 Group   4 Type H   : 5s1p contracted to 3s1p pattern {311/1}

Atom   0F    basis set group =>   1
Atom   1F    basis set group =>   1
Atom   2F    basis set group =>   1
Atom   3F    basis set group =>   1
Atom   4F    basis set group =>   1
Atom   5F    basis set group =>   1
Atom   6F    basis set group =>   1
Atom   7O    basis set group =>   2
Atom   8C    basis set group =>   3
Atom   9C    basis set group =>   3
Atom  10C    basis set group =>   3
Atom  11C    basis set group =>   3
Atom  12H    basis set group =>   4
Atom  13H    basis set group =>   4
Atom  14H    basis set group =>   4
---------------------------------
AUXILIARY/J BASIS SET INFORMATION
---------------------------------
There are 4 groups of distinct atoms

 Group   1 Type F   : 12s5p4d2f1g contracted to 6s4p3d1f1g pattern {711111/2111/211/2/1}
 Group   2 Type O   : 12s5p4d2f1g contracted to 6s4p3d1f1g pattern {711111/2111/211/2/1}
 Group   3 Type C   : 12s5p4d2f1g contracted to 6s4p3d1f1g pattern {711111/2111/211/2/1}
 Group   4 Type H   : 5s2p1d contracted to 3s1p1d pattern {311/2/1}

Atom   0F    basis set group =>   1
Atom   1F    basis set group =>   1
Atom   2F    basis set group =>   1
Atom   3F    basis set group =>   1
Atom   4F    basis set group =>   1
Atom   5F    basis set group =>   1
Atom   6F    basis set group =>   1
Atom   7O    basis set group =>   2
Atom   8C    basis set group =>   3
Atom   9C    basis set group =>   3
Atom  10C    basis set group =>   3
Atom  11C    basis set group =>   3
Atom  12H    basis set group =>   4
Atom  13H    basis set group =>   4
Atom  14H    basis set group =>   4
------------------------------------------------------------------------------
                             ORCA STARTUP CALCULATIONS
                           -- RI-GTO INTEGRALS CHOSEN --
------------------------------------------------------------------------------
------------------------------------------------------------------------------
                   ___                                                        
                  /   \      - P O W E R E D   B Y -                         
                 /     \                                                     
                 |  |  |   _    _      __       _____    __    __             
                 |  |  |  | |  | |    /  \     |  _  \  |  |  /  |          
                  \  \/   | |  | |   /    \    | | | |  |  | /  /          
                 / \  \   | |__| |  /  /\  \   | |_| |  |  |/  /          
                |  |  |   |  __  | /  /__\  \  |    /   |      \           
                |  |  |   | |  | | |   __   |  |    \   |  |\   \          
                \     /   | |  | | |  |  |  |  | |\  \  |  | \   \       
                 \___/    |_|  |_| |__|  |__|  |_| \__\ |__|  \__/        
                                                                              
                      - O R C A' S   B I G   F R I E N D -                    
                                      &                                       
                       - I N T E G R A L  F E E D E R -                       
                                                                              
 v1 FN, 2020, v2 2021, v3 2022-2024                                           
------------------------------------------------------------------------------


----------------------
SHARK INTEGRAL PACKAGE
----------------------

Number of atoms                             ...     15
Number of basis functions                   ...    342
Number of shells                            ...    144
Maximum angular momentum                    ...      2
Integral batch strategy                     ... SHARK/LIBINT Hybrid
RI-J (if used) integral strategy            ... SPLIT-RIJ (Revised 2003 algorithm where possible)
Printlevel                                  ...      1
Contraction scheme used                     ... SEGMENTED contraction
Prescreening option                         ... SCHWARTZ
   Thresh                                   ... 2.500e-11
   Tcut                                     ... 2.500e-12
   Tpresel                                  ... 2.500e-12 
Coulomb Range Separation                    ... NOT USED
Exchange Range Separation                   ... NOT USED
Multipole approximations                    ... NOT USED
Finite Nucleus Model                        ... NOT USED
CABS basis                                  ... NOT available
Auxiliary Coulomb fitting basis             ... AVAILABLE
   # of basis functions in Aux-J            ...    621
   # of shells in Aux-J                     ...    195
   Maximum angular momentum in Aux-J        ...      4
Auxiliary J/K fitting basis                 ... NOT available
Auxiliary Correlation fitting basis         ... NOT available
Auxiliary 'external' fitting basis          ... NOT available

Checking pre-screening integrals            ... done (  0.0 sec) Dimension = 144
   => SHARK Basis and OBASIS are compatible. Storing Pre-screening
Shell pair information
Shell pair cut-off parameter TPreSel        ...   2.5e-12
Total number of shell pairs                 ...     10440
Shell pairs after pre-screening             ...      8658
Total number of primitive shell pairs       ...     33672
Primitive shell pairs kept                  ...     19838
          la=0 lb=0:   1944 shell pairs
          la=1 lb=0:   3026 shell pairs
          la=1 lb=1:   1187 shell pairs
          la=2 lb=0:   1271 shell pairs
          la=2 lb=1:   1007 shell pairs
          la=2 lb=2:    223 shell pairs

Checking whether 4 symmetric matrices of dimension 342 fit in memory
:Max Core in MB      =   4096.00
 MB in use           =     14.01
 MB left             =   4081.99
 MB needed           =      1.79
 Data fit in memory  = YES
Calculating RI/J V-Matrix + Cholesky decomp.... done (  0.7 sec)
Calculating Nuclear repulsion               ... done (  0.0 sec) ENN=    840.796475296706 Eh

Diagonalization of the overlap matrix:
Smallest eigenvalue                        ... 2.451e-05
Time for diagonalization                   ...    0.039 sec
Threshold for overlap eigenvalues          ... 1.000e-07
Number of eigenvalues below threshold      ... 0
Time for construction of square roots      ...    0.136 sec
Total time needed                          ...    0.176 sec

-------------------
DFT GRID GENERATION
-------------------

General Integration Accuracy     IntAcc      ... 4.388
Radial Grid Type                 RadialGrid  ... OptM3 with GC (2021)
Angular Grid (max. ang.)         AngularGrid ... 4 (Lebedev-302)
Angular grid pruning method      GridPruning ... 4 (adaptive)
Weight generation scheme         WeightScheme... mBecke (2022)
Basis function cutoff            BFCut       ... 1.0000e-11
Integration weight cutoff        WCut        ... 1.0000e-14
Partially contracted basis set               ... off
Rotationally invariant grid construction     ... off
Angular grids for H and He will be reduced by one unit
Diffuse basis detected: some atoms will have their outermost
                        angular grid increased by 1.

Total number of grid points                  ...    86135
Total number of batches                      ...     1355
Average number of points per batch           ...       63
Average number of grid points per atom       ...     5742

--------------------
COSX GRID GENERATION
--------------------

GRIDX 1
-------
General Integration Accuracy     IntAcc      ... 3.816
Radial Grid Type                 RadialGrid  ... OptM3 with GC (2021)
Angular Grid (max. ang.)         AngularGrid ... 1 (Lebedev-50)
Angular grid pruning method      GridPruning ... 4 (adaptive)
Weight generation scheme         WeightScheme... mBecke (2022)
Basis function cutoff            BFCut       ... 1.0000e-11
Integration weight cutoff        WCut        ... 1.0000e-14
Partially contracted basis set               ... on
Rotationally invariant grid construction     ... off
Angular grids for H and He will be reduced by one unit
Diffuse basis detected: some atoms will have their outermost
                        angular grid increased by 1.

Total number of grid points                  ...    10954
Total number of batches                      ...       94
Average number of points per batch           ...      116
Average number of grid points per atom       ...      730
UseSFitting                                  ... on

GRIDX 2
-------
General Integration Accuracy     IntAcc      ... 4.020
Radial Grid Type                 RadialGrid  ... OptM3 with GC (2021)
Angular Grid (max. ang.)         AngularGrid ... 2 (Lebedev-110)
Angular grid pruning method      GridPruning ... 4 (adaptive)
Weight generation scheme         WeightScheme... mBecke (2022)
Basis function cutoff            BFCut       ... 1.0000e-11
Integration weight cutoff        WCut        ... 1.0000e-14
Partially contracted basis set               ... on
Rotationally invariant grid construction     ... off
Angular grids for H and He will be reduced by one unit
Diffuse basis detected: some atoms will have their outermost
                        angular grid increased by 1.

Total number of grid points                  ...    28349
Total number of batches                      ...      226
Average number of points per batch           ...      125
Average number of grid points per atom       ...     1890
UseSFitting                                  ... on

GRIDX 3
-------
General Integration Accuracy     IntAcc      ... 4.338
Radial Grid Type                 RadialGrid  ... OptM3 with GC (2021)
Angular Grid (max. ang.)         AngularGrid ... 3 (Lebedev-194)
Angular grid pruning method      GridPruning ... 4 (adaptive)
Weight generation scheme         WeightScheme... mBecke (2022)
Basis function cutoff            BFCut       ... 1.0000e-11
Integration weight cutoff        WCut        ... 1.0000e-14
Partially contracted basis set               ... on
Rotationally invariant grid construction     ... off
Angular grids for H and He will be reduced by one unit
Diffuse basis detected: some atoms will have their outermost
                        angular grid increased by 1.

Total number of grid points                  ...    61210
Total number of batches                      ...      487
Average number of points per batch           ...      125
Average number of grid points per atom       ...     4081
UseSFitting                                  ... on
Grids setup in   3.7 sec
Initializing property integral containers    ... done (  0.0 sec)

SHARK setup successfully completed in   5.5 seconds

Maximum memory used throughout the entire STARTUP-calculation: 46.7 MB
-------------------------------------------------------------------------------
                                 ORCA GUESS
                   Start orbitals & Density for SCF / CASSCF
-------------------------------------------------------------------------------

------------
SCF SETTINGS
------------
Hamiltonian:
 Density Functional     Method          .... DFT(GTOs)
 Exchange Functional    Exchange        .... B88
   X-Alpha parameter    XAlpha          ....  0.666667
   Becke's b parameter  XBeta           ....  0.004200
 Correlation Functional Correlation     .... LYP
 LDA part of GGA corr.  LDAOpt          .... VWN-5
 Gradients option       PostSCFGGA      .... off
 Hybrid DFT is turned on
   Fraction HF Exchange ScalHFX         ....  0.200000
   Scaling of DF-GGA-X  ScalDFX         ....  0.720000
   Scaling of DF-GGA-C  ScalDFC         ....  0.810000
   Scaling of DF-LDA-C  ScalLDAC        ....  1.000000
   Perturbative correction              ....  0.000000
   NL short-range parameter             ....  4.800000
 RI-approximation to the Coulomb term is turned on
   Number of AuxJ basis functions       .... 621
   RIJ-COSX (HFX calculated with COS-X)).... on


General Settings:
 Integral files         IntName         .... HFE_347pcf2_anti
 Hartree-Fock type      HFTyp           .... RHF
 Total Charge           Charge          ....    0
 Multiplicity           Mult            ....    1
 Number of Electrons    NEL             ....   98
 Basis Dimension        Dim             ....  342
 Nuclear Repulsion      ENuc            ....    840.7964752967 Eh

Convergence Acceleration:
 AO-DIIS                CNVDIIS         .... on
   Start iteration      DIISMaxIt       ....    12
   Startup error        DIISStart       ....  0.200000
   # of expansion vecs  DIISMaxEq       ....     5
   Bias factor          DIISBfac        ....   1.050
   Max. coefficient     DIISMaxC        ....  10.000
 MO-DIIS                CNVKDIIS        .... off
 Trust-Rad. Augm. Hess. CNVTRAH         .... auto
   Auto Start mean grad. ratio tolernc. ....  1.125000
   Auto Start start iteration           ....    50
   Auto Start num. interpolation iter.  ....    10
   Max. Number of Micro iterations      ....    24
   Max. Number of Macro iterations      .... Maxiter - #DIIS iter
   Number of Davidson start vectors     ....     2
   Converg. threshold    (grad. norm)   ....   1.000e-05
   Grad. Scal. Fac. for Micro threshold ....   0.100
   Minimum threshold for Micro iter.    ....   1.000e-02
   NR start threshold (gradient norm)   ....   1.000e-04
   Initial trust radius                 ....   0.400
   Minimum AH scaling param. (alpha)    ....   1.000
   Maximum AH scaling param. (alpha)    .... 1000.000
   Quad. conv. algorithm                .... NR
   White noise on init. David. guess    .... on
   Maximum white noise                  ....   0.010
   Pseudo random numbers                .... off
   Inactive MOs                         .... canonical
   Orbital update algorithm             .... Taylor
   Preconditioner                       .... Diag
   Full preconditioner red. dimension   ....   250
 SOSCF                 CNVSOSCF           .... on
   Start iteration     SOSCFMaxIt         ....   150
   Startup grad/error  SOSCFStart         ....  0.003300
   Hessian update      SOSCFHessUp        .... L-BFGS
   Autom. constraints  SOSCFAutoConstrain .... off
 Level Shifting         CNVShift        .... on
   Level shift para.    LevelShift      ....    0.2500
   Turn off err/grad.   ShiftErr        ....    0.0010
 Zerner damping         CNVZerner       .... off
 Static damping         CNVDamp         .... on
   Fraction old density DampFac         ....    0.7000
   Max. Damping (<1)    DampMax         ....    0.9800
   Min. Damping (>=0)   DampMin         ....    0.0000
   Turn off err/grad.   DampErr         ....    0.1000

SCF Procedure:
 Maximum # iterations   MaxIter         ....   125
 SCF integral mode      SCFMode         .... Direct
   Integral package                     .... SHARK and LIBINT hybrid scheme
 Reset frequency        DirectResetFreq ....    20
 Integral Threshold     Thresh          ....  2.500e-11 Eh
 Primitive CutOff       TCut            ....  2.500e-12 Eh

Convergence Tolerance:
 Convergence Check Mode ConvCheckMode   .... Total+1el-Energy
 Convergence forced     ConvForced      .... 0
 Energy Change          TolE            ....  1.000e-08 Eh
 1-El. energy change                    ....  1.000e-05 Eh
 Orbital Gradient       TolG            ....  1.000e-05
 Orbital Rotation angle TolX            ....  1.000e-05
 DIIS Error             TolErr          ....  5.000e-07

------------------------------
INITIAL GUESS: MODEL POTENTIAL
------------------------------
Loading Hartree-Fock densities                     ... done
Calculating cut-offs                               ... done
Initializing the effective Hamiltonian             ... done
Setting up the integral package (SHARK)            ... done
Starting the Coulomb interaction                   ... done (   0.3 sec)
Making the grid                                    ... done (   0.3 sec)
Mapping shells                                     ... done
Starting the XC term evaluation                    ... done (   0.5 sec)
  promolecular density results
     # of electrons  =     97.995578152
     EX              =   -100.069264385
     EC              =     -3.642492373
     EX+EC           =   -103.711756758
Transforming the Hamiltonian                       ... done (   0.0 sec)
Diagonalizing the Hamiltonian                      ... done (   0.0 sec)
Back transforming the eigenvectors                 ... done (   0.0 sec)
Now organizing SCF variables                       ... done
                      ------------------
                      INITIAL GUESS DONE (   1.2 sec)
                      ------------------
             **** ENERGY FILE WAS UPDATED (HFE_347pcf2_anti.en.tmp) ****
Finished Guess after   1.5 sec
Maximum memory used throughout the entire GUESS-calculation: 25.2 MB

-------------------------------------------------------------------------------------------
                                      ORCA LEAN-SCF
                              memory conserving SCF solver
-------------------------------------------------------------------------------------------

----------------------------------------D-I-I-S--------------------------------------------
Iteration    Energy (Eh)           Delta-E    RMSDP     MaxDP     DIISErr   Damp  Time(sec)
-------------------------------------------------------------------------------------------
               ***  Starting incremental Fock matrix formation  ***
    1    -928.0675956255539631     0.00e+00  1.26e-03  6.21e-02  2.30e-01  0.700  18.1
    2    -928.1766929705307803    -1.09e-01  6.86e-04  2.90e-02  8.89e-02  0.700   4.3
                               ***Turning on AO-DIIS***
    3    -928.2130789223998590    -3.64e-02  2.53e-04  1.13e-02  2.46e-02  0.700   3.5
    4    -928.2375203142386226    -2.44e-02  4.65e-04  1.63e-02  1.29e-02  0.000   3.2
                              *** Initializing SOSCF ***
---------------------------------------S-O-S-C-F--------------------------------------
Iteration    Energy (Eh)           Delta-E    RMSDP     MaxDP     MaxGrad    Time(sec)
--------------------------------------------------------------------------------------
    5    -928.2937147380306442    -5.62e-02  8.56e-05  3.29e-03  2.48e-03     3.6
               *** Restarting incremental Fock matrix formation ***
    6    -928.2938192726427360    -1.05e-04  5.79e-05  5.20e-03  2.73e-04     7.8
    7    -928.2938187885396246     4.84e-07  1.48e-05  6.64e-04  3.02e-04     5.8
    8    -928.2938248309839082    -6.04e-06  1.32e-05  1.21e-03  4.81e-05     5.3
    9    -928.2938248552414962    -2.43e-08  1.97e-06  7.08e-05  3.67e-05     5.2
   10    -928.2938249491950273    -9.40e-08  2.48e-06  1.71e-04  1.38e-05     5.2
   11    -928.2938249565385149    -7.34e-09  1.42e-06  1.10e-04  8.69e-06     5.2
                 **** Energy Check signals convergence ****

               *****************************************************
               *                     SUCCESS                       *
               *           SCF CONVERGED AFTER  11 CYCLES          *
               *****************************************************

Recomputing exchange energy using gridx3       ... done (   15.060 sec)
Old exchange energy                            :    -20.086033758 Eh
New exchange energy                            :    -20.086085263 Eh
Exchange energy change after final integration :     -0.000051505 Eh
Total energy after final integration           :   -928.293876471 Eh
             **** ENERGY FILE WAS UPDATED (HFE_347pcf2_anti.en.tmp) ****

----------------
TOTAL SCF ENERGY
----------------

Total Energy       :       -928.29387647146677 Eh          -25260.16058 eV

Components:
Nuclear Repulsion  :        840.79647529670603 Eh           22879.23525 eV
Electronic Energy  :      -1769.09030026304481 Eh          -48139.39443 eV
One Electron Energy:      -2959.02331279641385 Eh          -80519.11785 eV
Two Electron Energy:       1189.93301253336904 Eh           32379.72342 eV

Virial components:
Potential Energy   :      -1854.19113792439657 Eh          -50455.10595 eV
Kinetic Energy     :        925.89726145292968 Eh           25194.94537 eV
Virial Ratio       :          2.00258842435151

DFT components:
N(Alpha)           :       48.999866130203 electrons
N(Beta)            :       48.999866130203 electrons
N(Total)           :       97.999732260406 electrons
E(X)               :      -80.037190001384 Eh       
E(C)               :       -4.260289021866 Eh       
E(XC)              :      -84.297479023250 Eh       

---------------
SCF CONVERGENCE
---------------

  Last Energy change         ...    7.3435e-09  Tolerance :   1.0000e-08
  Last MAX-Density change    ...    1.0999e-04  Tolerance :   1.0000e-07
  Last RMS-Density change    ...    1.4189e-06  Tolerance :   5.0000e-09
  Last DIIS Error            ...    2.4846e-03  Tolerance :   5.0000e-07
  Last Orbital Gradient      ...    8.6919e-06  Tolerance :   1.0000e-05
  Last Orbital Rotation      ...    6.2511e-06  Tolerance :   1.0000e-05


----------------
ORBITAL ENERGIES
----------------

  NO   OCC          E(Eh)            E(eV) 
   0   2.0000     -24.740295      -673.2176 
   1   2.0000     -24.736150      -673.1049 
   2   2.0000     -24.734624      -673.0633 
   3   2.0000     -24.727095      -672.8585 
   4   2.0000     -24.726759      -672.8493 
   5   2.0000     -24.723270      -672.7544 
   6   2.0000     -24.720242      -672.6720 
   7   2.0000     -19.203122      -522.5435 
   8   2.0000     -10.448116      -284.3077 
   9   2.0000     -10.436170      -283.9826 
  10   2.0000     -10.378229      -282.4060 
  11   2.0000     -10.278912      -279.7034 
  12   2.0000      -1.333735       -36.2928 
  13   2.0000      -1.324264       -36.0351 
  14   2.0000      -1.292031       -35.1579 
  15   2.0000      -1.255013       -34.1506 
  16   2.0000      -1.249148       -33.9910 
  17   2.0000      -1.244362       -33.8608 
  18   2.0000      -1.234337       -33.5880 
  19   2.0000      -1.106482       -30.1089 
  20   2.0000      -0.840644       -22.8751 
  21   2.0000      -0.786596       -21.4044 
  22   2.0000      -0.702915       -19.1273 
  23   2.0000      -0.686187       -18.6721 
  24   2.0000      -0.632624       -17.2146 
  25   2.0000      -0.629026       -17.1167 
  26   2.0000      -0.624198       -16.9853 
  27   2.0000      -0.617471       -16.8022 
  28   2.0000      -0.602939       -16.4068 
  29   2.0000      -0.578732       -15.7481 
  30   2.0000      -0.577430       -15.7127 
  31   2.0000      -0.572676       -15.5833 
  32   2.0000      -0.520564       -14.1653 
  33   2.0000      -0.501489       -13.6462 
  34   2.0000      -0.491647       -13.3784 
  35   2.0000      -0.489144       -13.3103 
  36   2.0000      -0.485037       -13.1985 
  37   2.0000      -0.469028       -12.7629 
  38   2.0000      -0.462548       -12.5866 
  39   2.0000      -0.454603       -12.3704 
  40   2.0000      -0.452302       -12.3078 
  41   2.0000      -0.442607       -12.0440 
  42   2.0000      -0.441083       -12.0025 
  43   2.0000      -0.438662       -11.9366 
  44   2.0000      -0.431931       -11.7534 
  45   2.0000      -0.430441       -11.7129 
  46   2.0000      -0.396961       -10.8019 
  47   2.0000      -0.386403       -10.5146 
  48   2.0000      -0.349408        -9.5079 
  49   0.0000      -0.001474        -0.0401 
  50   0.0000       0.008698         0.2367 
  51   0.0000       0.015714         0.4276 
  52   0.0000       0.021972         0.5979 
  53   0.0000       0.034271         0.9326 
  54   0.0000       0.047606         1.2954 
  55   0.0000       0.055366         1.5066 
  56   0.0000       0.064102         1.7443 
  57   0.0000       0.072849         1.9823 
  58   0.0000       0.075736         2.0609 
  59   0.0000       0.083487         2.2718 
*Only the first 10 virtual orbitals were printed.

                    ********************************
                    * MULLIKEN POPULATION ANALYSIS *
                    ********************************

-----------------------
MULLIKEN ATOMIC CHARGES
-----------------------
   0 F :   -0.338483
   1 F :   -0.348834
   2 F :   -0.288742
   3 F :   -0.296059
   4 F :   -0.308776
   5 F :   -0.310256
   6 F :   -0.305701
   7 O :   -0.431791
   8 C :    0.741754
   9 C :   -0.044520
  10 C :    0.598199
  11 C :    0.839009
  12 H :    0.167429
  13 H :    0.171923
  14 H :    0.154849
Sum of atomic charges:    0.0000000

--------------------------------
MULLIKEN REDUCED ORBITAL CHARGES
--------------------------------
  0 F s       :     4.034258  s :     4.034258
      pz      :     1.832407  p :     5.288888
      px      :     1.904750
      py      :     1.551731
      dz2     :     0.001770  d :     0.015337
      dxz     :     0.000715
      dyz     :     0.005288
      dx2y2   :     0.004851
      dxy     :     0.002712

  1 F s       :     4.040138  s :     4.040138
      pz      :     1.492482  p :     5.293231
      px      :     1.900213
      py      :     1.900536
      dz2     :     0.008276  d :     0.015466
      dxz     :     0.003454
      dyz     :     0.003208
      dx2y2   :     0.000304
      dxy     :     0.000225

  2 F s       :     3.995892  s :     3.995892
      pz      :     1.810735  p :     5.277326
      px      :     1.903370
      py      :     1.563222
      dz2     :     0.002296  d :     0.015524
      dxz     :     0.000707
      dyz     :     0.005434
      dx2y2   :     0.004700
      dxy     :     0.002386

  3 F s       :     4.006544  s :     4.006544
      pz      :     1.892826  p :     5.273990
      px      :     1.542274
      py      :     1.838890
      dz2     :     0.002229  d :     0.015525
      dxz     :     0.003325
      dyz     :     0.000866
      dx2y2   :     0.004481
      dxy     :     0.004624

  4 F s       :     4.005671  s :     4.005671
      pz      :     1.489911  p :     5.288060
      px      :     1.899019
      py      :     1.899129
      dz2     :     0.008225  d :     0.015045
      dxz     :     0.003271
      dyz     :     0.003041
      dx2y2   :     0.000271
      dxy     :     0.000237

  5 F s       :     4.017735  s :     4.017735
      pz      :     1.869785  p :     5.277362
      px      :     1.616294
      py      :     1.791282
      dz2     :     0.001873  d :     0.015160
      dxz     :     0.003068
      dyz     :     0.001556
      dx2y2   :     0.003421
      dxy     :     0.005240

  6 F s       :     4.007698  s :     4.007698
      pz      :     1.826324  p :     5.282841
      px      :     1.905245
      py      :     1.551272
      dz2     :     0.001689  d :     0.015161
      dxz     :     0.000706
      dyz     :     0.005304
      dx2y2   :     0.004806
      dxy     :     0.002656

  7 O s       :     3.884268  s :     3.884268
      pz      :     1.763245  p :     4.510860
      px      :     1.146763
      py      :     1.600851
      dz2     :     0.004960  d :     0.036663
      dxz     :     0.006318
      dyz     :     0.004940
      dx2y2   :     0.006944
      dxy     :     0.013500

  8 C s       :     2.859218  s :     2.859218
      pz      :     0.579940  p :     2.047056
      px      :     0.834493
      py      :     0.632623
      dz2     :     0.065450  d :     0.351972
      dxz     :     0.083830
      dyz     :     0.077869
      dx2y2   :     0.047264
      dxy     :     0.077559

  9 C s       :     3.178011  s :     3.178011
      pz      :     1.043108  p :     2.749481
      px      :     0.788815
      py      :     0.917558
      dz2     :     0.025337  d :     0.117028
      dxz     :     0.020618
      dyz     :     0.014435
      dx2y2   :     0.030726
      dxy     :     0.025911

 10 C s       :     2.912235  s :     2.912235
      pz      :     0.938853  p :     2.262137
      px      :     0.683095
      py      :     0.640190
      dz2     :     0.039661  d :     0.227428
      dxz     :     0.039468
      dyz     :     0.033974
      dx2y2   :     0.047259
      dxy     :     0.067065

 11 C s       :     2.854260  s :     2.854260
      pz      :     0.579007  p :     1.949884
      px      :     0.775510
      py      :     0.595367
      dz2     :     0.067017  d :     0.356846
      dxz     :     0.077834
      dyz     :     0.076747
      dx2y2   :     0.062102
      dxy     :     0.073147

 12 H s       :     0.808127  s :     0.808127
      pz      :     0.006626  p :     0.024444
      px      :     0.003292
      py      :     0.014527

 13 H s       :     0.803532  s :     0.803532
      pz      :     0.016487  p :     0.024546
      px      :     0.003469
      py      :     0.004589

 14 H s       :     0.822892  s :     0.822892
      pz      :     0.017277  p :     0.022259
      px      :     0.002426
      py      :     0.002556



                     *******************************
                     * LOEWDIN POPULATION ANALYSIS *
                     *******************************

----------------------
LOEWDIN ATOMIC CHARGES
----------------------
   0 F :    0.075191
   1 F :    0.084490
   2 F :    0.054483
   3 F :    0.053662
   4 F :    0.080662
   5 F :    0.078958
   6 F :    0.085034
   7 O :    0.072605
   8 C :   -0.376312
   9 C :   -0.094606
  10 C :   -0.171337
  11 C :   -0.385163
  12 H :    0.143956
  13 H :    0.145034
  14 H :    0.153344

-------------------------------
LOEWDIN REDUCED ORBITAL CHARGES
-------------------------------
  0 F s       :     3.614912  s :     3.614912
      pz      :     1.800581  p :     5.281963
      px      :     1.863461
      py      :     1.617921
      dz2     :     0.003102  d :     0.027934
      dxz     :     0.001191
      dyz     :     0.009353
      dx2y2   :     0.009455
      dxy     :     0.004833

  1 F s       :     3.611811  s :     3.611811
      pz      :     1.565625  p :     5.275399
      px      :     1.859325
      py      :     1.850449
      dz2     :     0.015986  d :     0.028299
      dxz     :     0.006156
      dyz     :     0.005338
      dx2y2   :     0.000469
      dxy     :     0.000350

  2 F s       :     3.630370  s :     3.630370
      pz      :     1.809682  p :     5.286594
      px      :     1.853950
      py      :     1.622963
      dz2     :     0.004258  d :     0.028553
      dxz     :     0.001115
      dyz     :     0.010757
      dx2y2   :     0.008597
      dxy     :     0.003826

  3 F s       :     3.630961  s :     3.630961
      pz      :     1.860931  p :     5.286797
      px      :     1.611408
      py      :     1.814458
      dz2     :     0.003948  d :     0.028581
      dxz     :     0.006394
      dyz     :     0.001783
      dx2y2   :     0.008243
      dxy     :     0.008213

  4 F s       :     3.620125  s :     3.620125
      pz      :     1.566693  p :     5.271726
      px      :     1.853120
      py      :     1.851914
      dz2     :     0.015874  d :     0.027487
      dxz     :     0.005878
      dyz     :     0.005000
      dx2y2   :     0.000321
      dxy     :     0.000414

  5 F s       :     3.623487  s :     3.623487
      pz      :     1.829528  p :     5.270241
      px      :     1.665093
      py      :     1.775620
      dz2     :     0.003380  d :     0.027314
      dxz     :     0.005010
      dyz     :     0.002766
      dx2y2   :     0.006265
      dxy     :     0.009892

  6 F s       :     3.619648  s :     3.619648
      pz      :     1.797502  p :     5.267705
      px      :     1.855950
      py      :     1.614253
      dz2     :     0.002920  d :     0.027613
      dxz     :     0.001147
      dyz     :     0.009546
      dx2y2   :     0.009237
      dxy     :     0.004763

  7 O s       :     3.287053  s :     3.287053
      pz      :     1.685118  p :     4.548954
      px      :     1.269516
      py      :     1.594319
      dz2     :     0.012304  d :     0.091388
      dxz     :     0.016583
      dyz     :     0.008137
      dx2y2   :     0.022883
      dxy     :     0.031481

  8 C s       :     2.657759  s :     2.657759
      pz      :     0.802598  p :     2.602377
      px      :     0.949031
      py      :     0.850749
      dz2     :     0.264279  d :     1.116175
      dxz     :     0.203850
      dyz     :     0.236735
      dx2y2   :     0.181907
      dxy     :     0.229404

  9 C s       :     2.707882  s :     2.707882
      pz      :     1.027377  p :     2.895149
      px      :     0.888660
      py      :     0.979112
      dz2     :     0.106354  d :     0.491575
      dxz     :     0.079621
      dyz     :     0.065794
      dx2y2   :     0.116679
      dxy     :     0.123128

 10 C s       :     2.684449  s :     2.684449
      pz      :     0.982322  p :     2.632454
      px      :     0.842751
      py      :     0.807381
      dz2     :     0.177068  d :     0.854434
      dxz     :     0.113196
      dyz     :     0.142097
      dx2y2   :     0.200569
      dxy     :     0.221503

 11 C s       :     2.655003  s :     2.655003
      pz      :     0.787315  p :     2.554221
      px      :     0.941912
      py      :     0.824993
      dz2     :     0.277689  d :     1.175939
      dxz     :     0.201075
      dyz     :     0.244075
      dx2y2   :     0.213859
      dxy     :     0.239241

 12 H s       :     0.788471  s :     0.788471
      pz      :     0.019910  p :     0.067572
      px      :     0.009943
      py      :     0.037720

 13 H s       :     0.787290  s :     0.787290
      pz      :     0.044960  p :     0.067676
      px      :     0.010168
      py      :     0.012549

 14 H s       :     0.784632  s :     0.784632
      pz      :     0.046475  p :     0.062025
      px      :     0.007833
      py      :     0.007716



                      *****************************
                      * MAYER POPULATION ANALYSIS *
                      *****************************

  NA   - Mulliken gross atomic population
  ZA   - Total nuclear charge
  QA   - Mulliken gross atomic charge
  VA   - Mayer's total valence
  BVA  - Mayer's bonded valence
  FA   - Mayer's free valence

  ATOM       NA         ZA         QA         VA         BVA        FA
  0 F      9.3385     9.0000    -0.3385     1.0835     1.0835     0.0000
  1 F      9.3488     9.0000    -0.3488     1.1260     1.1260     0.0000
  2 F      9.2887     9.0000    -0.2887     1.0569     1.0569    -0.0000
  3 F      9.2961     9.0000    -0.2961     1.0132     1.0132    -0.0000
  4 F      9.3088     9.0000    -0.3088     1.1006     1.1006     0.0000
  5 F      9.3103     9.0000    -0.3103     1.0373     1.0373    -0.0000
  6 F      9.3057     9.0000    -0.3057     1.0963     1.0963     0.0000
  7 O      8.4318     8.0000    -0.4318     1.9282     1.9282    -0.0000
  8 C      5.2582     6.0000     0.7418     3.8397     3.8397    -0.0000
  9 C      6.0445     6.0000    -0.0445     3.7029     3.7029     0.0000
 10 C      5.4018     6.0000     0.5982     3.6503     3.6503     0.0000
 11 C      5.1610     6.0000     0.8390     4.0475     4.0475     0.0000
 12 H      0.8326     1.0000     0.1674     0.9375     0.9375     0.0000
 13 H      0.8281     1.0000     0.1719     0.9377     0.9377     0.0000
 14 H      0.8452     1.0000     0.1548     0.9416     0.9416     0.0000

  Mayer bond orders larger than 0.100000
B(  0-F ,  8-C ) :   1.0303 B(  0-F , 10-C ) :  -0.1108 B(  1-F ,  8-C ) :   1.0612 
B(  1-F , 10-C ) :  -0.1279 B(  2-F ,  8-C ) :  -0.1090 B(  2-F , 10-C ) :   1.0715 
B(  3-F , 10-C ) :   0.9382 B(  4-F , 11-C ) :   1.0012 B(  5-F , 11-C ) :   0.9473 
B(  6-F , 11-C ) :   1.0007 B(  7-O ,  8-C ) :   1.0005 B(  7-O ,  9-C ) :   0.8724 
B(  8-C , 10-C ) :   0.9545 B(  9-C , 11-C ) :   1.1074 B(  9-C , 12-H ) :   0.9630 
B(  9-C , 13-H ) :   0.9600 B( 10-C , 14-H ) :   0.9991 

-------
TIMINGS
-------

Total SCF time: 0 days 0 hours 1 min 27 sec 

Total time                  ....      87.142 sec
Sum of individual times     ....      82.622 sec  ( 94.8%)

SCF preparation             ....       0.144 sec  (  0.2%)
Fock matrix formation       ....      81.468 sec  ( 93.5%)
  Startup                   ....       0.009 sec  (  0.0% of F)
  Split-RI-J                ....       6.067 sec  (  7.4% of F)
  Chain of spheres X        ....      69.009 sec  ( 84.7% of F)
  XC integration            ....      10.318 sec  ( 12.7% of F)
    XC Preparation          ....       0.000 sec  (  0.0% of XC)
    Basis function eval.    ....       2.472 sec  ( 24.0% of XC)
    Density eval.           ....       2.699 sec  ( 26.2% of XC)
    XC-Functional eval.     ....       0.273 sec  (  2.6% of XC)
    XC-Potential eval.      ....       4.191 sec  ( 40.6% of XC)
Diagonalization             ....       0.000 sec  (  0.0%)
Density matrix formation    ....       0.388 sec  (  0.4%)
Total Energy calculation    ....       0.006 sec  (  0.0%)
Population analysis         ....       0.055 sec  (  0.1%)
Orbital Transformation      ....       0.114 sec  (  0.1%)
Orbital Orthonormalization  ....       0.000 sec  (  0.0%)
DIIS solution               ....       0.326 sec  (  0.4%)
SOSCF solution              ....       0.121 sec  (  0.1%)
Finished LeanSCF after  87.2 sec

Maximum memory used throughout the entire LEANSCF-calculation: 42.5 MB

------------------------------------------------------------------------------
                         ORCA PROPERTY INTEGRAL CALCULATIONS
------------------------------------------------------------------------------

GBWName                                   ... HFE_347pcf2_anti.gbw
Number of atoms                           ...     15
Number of basis functions                 ...    342
Max core memory                           ...   4096 MB

Dipole integrals                          ... YES
Quadrupole integrals                      ...  NO
Linear momentum integrals                 ...  NO
Angular momentum integrals                ...  NO
Higher moments length integrals           ...  NO
Higher moments velocity integrals         ...  NO
Kinetic energy integrals                  ...  NO
GIAO right hand sides                     ...  NO
GIAO dipole derivative integrals          ...  NO
SOC integrals                             ...  NO
EPR diamagnetic integrals (GIAO)          ...  NO
EPR gauge integrals                       ...  NO
Field gradient integrals                  ...  NO (   0 nuclei)
Spin-dipole/Fermi contact integrals       ...  NO (   0 nuclei)
Contact density integrals                 ...  NO (   0 nuclei)
Nucleus-orbit integrals                   ...  NO (   0 nuclei)
Geometric perturbations                   ...  NO (  15 nuclei)

Choice of electric origin   ... Center of mass
Position of electric origin ... (  0.0003,  0.0097, -0.0142) 
Choice of magnetic origin   ... GIAO
Position of magnetic origin ... (  0.0000,  0.0000,  0.0000) 

Calculating integrals                     ... Electric Dipole (Length)     done (  0.0 sec)

Property integrals calculated in   0.0 sec

Maximum memory used throughout the entire PROPINT-calculation: 26.0 MB

-------------------------   --------------------
FINAL SINGLE POINT ENERGY      -928.293876471467
-------------------------   --------------------

------------------------------------------------------------------------------
                         ORCA SCF GRADIENT CALCULATION
------------------------------------------------------------------------------

Nuc. rep. gradient        (SHARK) ... done (  0.0 sec)
HCore & Overlap gradient  (SHARK) ... done (  0.3 sec)
Split-RIJ-J gradient      (SHARK) ... done (  1.9 sec)
COSX-gradient                     ... done ( 41.2 sec)
XC gradient                       ... done (  4.8 sec)

------------------
CARTESIAN GRADIENT
------------------

   1   F   :   -0.005166895    0.002049670    0.001538216
   2   F   :   -0.002741015    0.003703742   -0.001894038
   3   F   :    0.004200416   -0.000585471    0.000008294
   4   F   :    0.001311280    0.005735258   -0.001052065
   5   F   :    0.002116253   -0.000268720    0.003934964
   6   F   :   -0.006456912   -0.001132572   -0.000056069
   7   F   :    0.002085093    0.004697811   -0.002191452
   8   O   :   -0.033342792    0.005585946    0.000976041
   9   C   :    0.045727148   -0.004696400    0.004708573
  10   C   :   -0.004381401    0.014287983    0.008274343
  11   C   :   -0.014246037   -0.018236556   -0.007612413
  12   C   :    0.001002333   -0.009982408   -0.006456661
  13   H   :    0.004153672   -0.002198860    0.000516606
  14   H   :    0.003737520   -0.001072628   -0.001735491
  15   H   :    0.002001338    0.002113206    0.001041153

Difference to translation invariance:
           :   -0.0000000000    0.0000000000   -0.0000000000

Difference to rotation invariance:
           :   -0.0002041326    0.0001533289    0.0003458791

Norm of the Cartesian gradient     ...    0.0675483324
RMS gradient                       ...    0.0100695109
MAX gradient                       ...    0.0457271477

-------
TIMINGS
-------

Total SCF gradient time     ....       48.433 sec

Densities                   ....       0.002 sec  (  0.0%)
One electron gradient       ....       0.259 sec  (  0.5%)
RI-J Coulomb gradient       ....       1.936 sec  (  4.0%)
COSX gradient               ....      41.193 sec  ( 85.1%)
XC gradient                 ....       4.762 sec  (  9.8%)

Maximum memory used throughout the entire SCFGRAD-calculation: 49.9 MB
------------------------------------------------------------------------------
                         ORCA GEOMETRY RELAXATION STEP
------------------------------------------------------------------------------

Reading the OPT-File                    .... done
Getting information on internals        .... done
Copying old internal coords+grads       .... done
Making the new internal coordinates     .... (2022 redundants) done
Validating the new internal coordinates .... (2022 redundants) done
Calculating the B-matrix                .... done
Calculating the G,G- and P matrices     .... done
Transforming gradient to internals      .... done
Projecting the internal gradient        .... done
Number of atoms                         ....  15
Number of internal coordinates          ....  57
Current Energy                          ....  -928.293876471 Eh
Current gradient norm                   ....     0.067548332 Eh/bohr
Maximum allowed component of the step   ....  0.300
Current trust radius                    ....  0.300
Evaluating the initial hessian          ....  (Almloef) done
Projecting the Hessian                  .... done
Forming the augmented Hessian           .... done
Diagonalizing the augmented Hessian     .... done
Last element of RFO vector              ....  0.992480825
Lowest eigenvalues of augmented Hessian:
 -0.005377455  0.013129817  0.013288205  0.019618390  0.019753149
Length of the computed step             ....  0.123327534
The final length of the internal step   ....  0.123327534
Converting the step to Cartesian space:
 Initial RMS(Int)=    0.0163351309
Transforming coordinates:
 Iter   0:  RMS(Cart)=    0.0537822276 RMS(Int)=    0.8316914928
done
Storing new coordinates                 .... done

                                .--------------------.
          ----------------------|Geometry convergence|-------------------------
          Item                value                   Tolerance       Converged
          ---------------------------------------------------------------------
          RMS gradient        0.0062984104            0.0001000000      NO
          MAX gradient        0.0324543097            0.0003000000      NO
          RMS step            0.0163351309            0.0020000000      NO
          MAX step            0.0644534387            0.0040000000      NO
          -------------------------------------------------------------------------
          ........................................................
          Max(Bonds)      0.0341      Max(Angles)    1.80
          Max(Dihed)        1.70      Max(Improp)    0.00
          ---------------------------------------------------------------------

The optimization has not yet converged - more geometry cycles are needed


    ---------------------------------------------------------------------------
                         Redundant Internal Coordinates
                            (Angstroem and degrees)

        Definition                    Value    dE/dq     Step     New-Value
    ----------------------------------------------------------------------------
     1. B(C   8,F   1)                1.3540  0.001028 -0.0009    1.3531   
     2. B(C   8,O   7)                1.4217  0.032454 -0.0341    1.3876   
     3. B(C   8,F   0)                1.3549 -0.001358  0.0012    1.3561   
     4. B(C   9,O   7)                1.4207 -0.004918  0.0052    1.4259   
     5. B(C  10,F   3)                1.3556 -0.000979  0.0009    1.3565   
     6. B(C  10,C   8)                1.5052 -0.014031  0.0179    1.5231   
     7. B(C  10,F   2)                1.3560 -0.000627  0.0006    1.3565   
     8. B(C  11,F   6)                1.3498  0.005105 -0.0044    1.3453   
     9. B(C  11,F   5)                1.3498  0.005666 -0.0049    1.3449   
    10. B(C  11,C   9)                1.5067 -0.002944  0.0038    1.5104   
    11. B(C  11,F   4)                1.3510  0.003599 -0.0031    1.3479   
    12. B(H  12,C   9)                1.0953  0.002226 -0.0033    1.0920   
    13. B(H  13,C   9)                1.0952  0.002208 -0.0033    1.0920   
    14. B(H  14,C  10)                1.0933  0.001212 -0.0018    1.0915   
    15. A(C   8,O   7,C   9)          112.56 -0.009590    1.37    113.92   
    16. A(F   1,C   8,C  10)          110.06 -0.002802    0.34    110.40   
    17. A(F   1,C   8,O   7)          109.61 -0.007252    1.39    110.99   
    18. A(O   7,C   8,C  10)          110.34  0.012936   -1.80    108.54   
    19. A(F   0,C   8,C  10)          109.68  0.001418   -0.56    109.12   
    20. A(F   0,C   8,F   1)          107.97  0.003714   -0.64    107.33   
    21. A(F   0,C   8,O   7)          109.14 -0.008312    1.30    110.44   
    22. A(H  12,C   9,H  13)          108.85 -0.000930    0.57    109.42   
    23. A(C  11,C   9,H  13)          109.52  0.001024   -0.47    109.05   
    24. A(O   7,C   9,H  13)          109.94 -0.004736    0.89    110.83   
    25. A(C  11,C   9,H  12)          109.60  0.001731   -0.60    109.00   
    26. A(O   7,C   9,H  12)          109.84 -0.005355    1.02    110.86   
    27. A(O   7,C   9,C  11)          109.08  0.008253   -1.42    107.66   
    28. A(F   3,C  10,H  14)          109.11 -0.002466    0.18    109.29   
    29. A(F   2,C  10,H  14)          108.81 -0.003413    0.34    109.15   
    30. A(F   2,C  10,F   3)          106.81 -0.007034    1.42    108.23   
    31. A(F   3,C  10,C   8)          109.51  0.006838   -0.85    108.67   
    32. A(C   8,C  10,H  14)          112.73  0.002700   -0.71    112.03   
    33. A(F   2,C  10,C   8)          109.69  0.002744   -0.26    109.42   
    34. A(F   4,C  11,C   9)          110.61 -0.007228    1.00    111.61   
    35. A(F   5,C  11,F   6)          108.10  0.002764   -0.33    107.77   
    36. A(F   4,C  11,F   6)          107.71 -0.000427    0.10    107.81   
    37. A(F   4,C  11,F   5)          107.74 -0.000562   -0.02    107.72   
    38. A(F   6,C  11,C   9)          111.26 -0.003910    0.61    111.87   
    39. A(F   5,C  11,C   9)          111.27  0.009369   -1.36    109.90   
    40. D(F   1,C   8,O   7,C   9)     58.64 -0.001386   -0.23     58.41   
    41. D(F   0,C   8,O   7,C   9)    -59.41  0.003238   -1.03    -60.45   
    42. D(C  10,C   8,O   7,C   9)    180.00 -0.001280   -0.05    179.95   
    43. D(H  13,C   9,O   7,C   8)    -59.24  0.003742   -1.16    -60.40   
    44. D(H  12,C   9,O   7,C   8)     60.52 -0.003698    0.73     61.25   
    45. D(C  11,C   9,O   7,C   8)   -179.34  0.000260   -0.26   -179.60   
    46. D(F   2,C  10,C   8,F   0)    178.28  0.000443   -0.62    177.66   
    47. D(F   3,C  10,C   8,O   7)   -178.37  0.002151   -1.57   -179.95   
    48. D(F   3,C  10,C   8,F   1)    -57.28 -0.000328   -0.78    -58.07   
    49. D(F   3,C  10,C   8,F   0)     61.36  0.003389   -1.70     59.67   
    50. D(F   2,C  10,C   8,O   7)    -61.46 -0.000794   -0.50    -61.96   
    51. D(F   2,C  10,C   8,F   1)     59.63 -0.003274    0.29     59.92   
    52. D(F   4,C  11,C   9,H  13)   -179.92  0.000586   -0.25   -180.16   
    53. D(F   4,C  11,C   9,H  12)     60.73  0.000050   -0.30     60.44   
    54. D(F   4,C  11,C   9,O   7)    -59.56  0.000479   -0.31    -59.87   
    55. D(F   5,C  11,C   9,H  13)     60.37 -0.000057    0.01     60.38   
    56. D(F   5,C  11,C   9,H  12)    -58.98 -0.000592   -0.04    -59.02   
    57. D(F   5,C  11,C   9,O   7)   -179.27 -0.000164   -0.05   -179.32   
    ----------------------------------------------------------------------------

Geometry step timings:
Preparation and reading OPT file:      0.001 s ( 3.182 %)
Internal coordinates            :      0.002 s ( 6.175 %)
B/P matrices and projection     :      0.016 s (47.524 %)
Hessian update/contruction      :      0.007 s (20.150 %)
Making the step                 :      0.005 s (14.845 %)
Converting the step to Cartesian:      0.001 s ( 4.200 %)
Storing new data                :      0.000 s ( 1.174 %)
Checking convergence            :      0.000 s ( 1.049 %)
Final printing                  :      0.001 s ( 1.687 %)
Total time                      :      0.033 s

Time for energy+gradient        :    144.082 s
Time for complete geometry iter :    144.442 s

         *************************************************************
         *                GEOMETRY OPTIMIZATION CYCLE   2            *
         *************************************************************
---------------------------------
CARTESIAN COORDINATES (ANGSTROEM)
---------------------------------
  F      1.323212   -1.641032    0.548394
  F      1.416190   -0.633836   -1.385377
  F      2.243856    1.686384   -0.147111
  F      3.516635   -0.059723    0.256149
  F     -2.513677    0.299182    1.361827
  F     -3.447929   -0.598250   -0.384810
  F     -2.422644    1.309451   -0.563433
  O     -0.015082    0.134904    0.183624
  C      1.227041   -0.433202   -0.060691
  C     -1.110633   -0.642678   -0.294173
  C      2.301070    0.492838    0.494990
  C     -2.381122    0.105095    0.034621
  H     -1.136361   -1.619129    0.194006
  H     -1.047045   -0.779237   -1.375707
  H      2.184389    0.657534    1.567690

----------------------------
CARTESIAN COORDINATES (A.U.)
----------------------------
  NO LB      ZA    FRAG     MASS         X           Y           Z
   0 F     9.0000    0    18.998    2.500508   -3.101101    1.036315
   1 F     9.0000    0    18.998    2.676212   -1.197777   -2.617982
   2 F     9.0000    0    18.998    4.240274    3.186803   -0.277999
   3 F     9.0000    0    18.998    6.645477   -0.112860    0.484052
   4 F     9.0000    0    18.998   -4.750162    0.565371    2.573480
   5 F     9.0000    0    18.998   -6.515641   -1.130528   -0.727186
   6 F     9.0000    0    18.998   -4.578134    2.474504   -1.064734
   7 O     8.0000    0    15.999   -0.028501    0.254931    0.347000
   8 C     6.0000    0    12.011    2.318771   -0.818634   -0.114690
   9 C     6.0000    0    12.011   -2.098792   -1.214486   -0.555906
  10 C     6.0000    0    12.011    4.348393    0.931328    0.935396
  11 C     6.0000    0    12.011   -4.499668    0.198600    0.065425
  12 H     1.0000    0     1.008   -2.147411   -3.059710    0.366618
  13 H     1.0000    0     1.008   -1.978629   -1.472544   -2.599710
  14 H     1.0000    0     1.008    4.127896    1.242558    2.962504

--------------------------------
INTERNAL COORDINATES (ANGSTROEM)
--------------------------------
 F      0   0   0     0.000000000000     0.00000000     0.00000000
 F      1   0   0     2.182328719491     0.00000000     0.00000000
 F      2   1   0     2.757127489569    90.18424875     0.00000000
 F      3   2   1     2.198060939875    65.65168113    56.47325228
 F      1   2   3     4.375822498269    89.85339052    78.84915070
 F      5   1   2     2.174614407138    92.54561602    59.77941936
 F      6   5   1     2.173116846121    60.06902033   271.16315579
 O      1   2   3     2.253449935537    61.19319695    62.05103845
 C      2   1   3     1.353079160905    36.38671856   332.26995165
 C      8   1   2     1.425887863544    94.63267444    91.73309271
 C      4   3   2     1.356453049950    35.88472786   289.83024927
 C      6   5   1     1.344876294803    36.18550748   308.83110355
 H     10   8   1     1.091986870186   110.85065738    31.77733694
 H     10   8   1     1.091974395156   110.81426898   270.09317624
 H     11   4   3     1.091523776494   109.28700859   241.24590638

---------------------------
INTERNAL COORDINATES (A.U.)
---------------------------
 F      0   0   0     0.000000000000     0.00000000     0.00000000
 F      1   0   0     4.124003614029     0.00000000     0.00000000
 F      2   1   0     5.210215871591    90.18424875     0.00000000
 F      3   2   1     4.153733202033    65.65168113    56.47325228
 F      1   2   3     8.269106132380    89.85339052    78.84915070
 F      5   1   2     4.109425676370    92.54561602    59.77941936
 F      6   5   1     4.106595696179    60.06902033   271.16315579
 O      1   2   3     4.258403234668    61.19319695    62.05103845
 C      2   1   3     2.556949051626    36.38671856   332.26995165
 C      8   1   2     2.694537559780    94.63267444    91.73309271
 C      4   3   2     2.563324777928    35.88472786   289.83024927
 C      6   5   1     2.541447881180    36.18550748   308.83110355
 H     10   8   1     2.063556126490   110.85065738    31.77733694
[...]
freq.     245.75  E(vib)   ...       0.35 
freq.     308.00  E(vib)   ...       0.29 
freq.     351.45  E(vib)   ...       0.26 
freq.     388.05  E(vib)   ...       0.23 
freq.     432.42  E(vib)   ...       0.21 
freq.     514.46  E(vib)   ...       0.16 
freq.     527.29  E(vib)   ...       0.16 
freq.     539.62  E(vib)   ...       0.15 
freq.     578.84  E(vib)   ...       0.13 
freq.     587.04  E(vib)   ...       0.13 
freq.     643.59  E(vib)   ...       0.11 
freq.     768.50  E(vib)   ...       0.07 
freq.     837.88  E(vib)   ...       0.06 
freq.     868.76  E(vib)   ...       0.05 
freq.     965.31  E(vib)   ...       0.04 
freq.    1035.64  E(vib)   ...       0.03 
freq.    1081.69  E(vib)   ...       0.02 
freq.    1113.68  E(vib)   ...       0.02 
freq.    1129.00  E(vib)   ...       0.02 
freq.    1151.85  E(vib)   ...       0.02 
freq.    1166.62  E(vib)   ...       0.02 
freq.    1195.86  E(vib)   ...       0.02 
freq.    1280.46  E(vib)   ...       0.01 
freq.    1287.32  E(vib)   ...       0.01 
freq.    1301.78  E(vib)   ...       0.01 
freq.    1358.89  E(vib)   ...       0.01 
freq.    1415.84  E(vib)   ...       0.01 
freq.    1448.79  E(vib)   ...       0.01 
freq.    1496.99  E(vib)   ...       0.01 
freq.    3070.09  E(vib)   ...       0.00 
freq.    3098.89  E(vib)   ...       0.00 
freq.    3127.91  E(vib)   ...       0.00 

------------
INNER ENERGY
------------

The inner energy is: U= E(el) + E(ZPE) + E(vib) + E(rot) + E(trans)
    E(el)   - is the total energy from the electronic structure calculation
              = E(kin-el) + E(nuc-el) + E(el-el) + E(nuc-nuc)
    E(ZPE)  - the the zero temperature vibrational energy from the frequency calculation
    E(vib)  - the the finite temperature correction to E(ZPE) due to population
              of excited vibrational states
    E(rot)  - is the rotational thermal energy
    E(trans)- is the translational thermal energy

Summary of contributions to the inner energy U:
Electronic energy                ...   -928.29892292 Eh
Zero point energy                ...      0.08220240 Eh      51.58 kcal/mol
Thermal vibrational correction   ...      0.00970220 Eh       6.09 kcal/mol
Thermal rotational correction    ...      0.00152006 Eh       0.95 kcal/mol
Thermal translational correction ...      0.00152006 Eh       0.95 kcal/mol
-----------------------------------------------------------------------
Total thermal energy                   -928.20397820 Eh


Summary of corrections to the electronic energy:
(perhaps to be used in another calculation)
Total thermal correction                  0.01274232 Eh       8.00 kcal/mol
Non-thermal (ZPE) correction              0.08220240 Eh      51.58 kcal/mol
-----------------------------------------------------------------------
Total correction                          0.09494472 Eh      59.58 kcal/mol


--------
ENTHALPY
--------

The enthalpy is H = U + kB*T
                kB is Boltzmann's constant
Total thermal energy              ...   -928.20397820 Eh 
Thermal Enthalpy correction       ...      0.00101341 Eh       0.64 kcal/mol
-----------------------------------------------------------------------
Total Enthalpy                    ...   -928.20296479 Eh


Note: Only C1 symmetry has been detected, increase convergence thresholds 
      if your molecule has a higher symmetry. Symmetry factor of 1.0 is   
      used for the rotational entropy correction. 
 

Note: Rotational entropy computed according to Herzberg 
Infrared and Raman Spectra, Chapter V,1, Van Nostrand Reinhold, 1945 
Point Group:  C1, Symmetry Number:   1  
Rotational constants in cm-1:     0.063060     0.014937     0.014099 

Vibrational entropy computed according to the QRRHO of S. Grimme
Chem.Eur.J. 2012 18 9955 using a reference frequency of 100.0 cm-1


-------
ENTROPY
-------

The entropy contributions are T*S = T*(S(el)+S(vib)+S(rot)+S(trans))
     S(el)   - electronic entropy
     S(vib)  - vibrational entropy
     S(rot)  - rotational entropy
     S(trans)- translational entropy
The entropies will be listed as multiplied by the temperature to get
units of energy

Electronic entropy                ...      0.00000000 Eh      0.00 kcal/mol
Vibrational entropy               ...      0.01769981 Eh     11.11 kcal/mol
Rotational entropy                ...      0.01600503 Eh     10.04 kcal/mol
Translational entropy             ...      0.02148743 Eh     13.48 kcal/mol
-----------------------------------------------------------------------
Final entropy term                ...      0.05519227 Eh     34.63 kcal/mol

In case the symmetry of your molecule has not been determined correctly
or in case you have a reason to use a different symmetry number we print 
out the resulting rotational entropy values for sn=1,12:

 non-linear molecules -----------------------------------
|  sn= 1 | S(rot)=       0.01600503 Eh     10.04 kcal/mol|
|  sn= 2 | S(rot)=       0.01530261 Eh      9.60 kcal/mol|
|  sn= 3 | S(rot)=       0.01489172 Eh      9.34 kcal/mol|
|  sn= 4 | S(rot)=       0.01460019 Eh      9.16 kcal/mol|
|  sn= 5 | S(rot)=       0.01437406 Eh      9.02 kcal/mol|
|  sn= 6 | S(rot)=       0.01418930 Eh      8.90 kcal/mol|
|  sn= 7 | S(rot)=       0.01403309 Eh      8.81 kcal/mol|
|  sn= 8 | S(rot)=       0.01389777 Eh      8.72 kcal/mol|
|  sn= 9 | S(rot)=       0.01377842 Eh      8.65 kcal/mol|
|  sn=10 | S(rot)=       0.01367165 Eh      8.58 kcal/mol|
|  sn=11 | S(rot)=       0.01357506 Eh      8.52 kcal/mol|
|  sn=12 | S(rot)=       0.01348689 Eh      8.46 kcal/mol|
 linear molecules ---------------------------------------
|  Dinfh | S(rot)=       0.01010644 Eh      6.34 kcal/mol|
|  Cinfv | S(rot)=       0.01080885 Eh      6.78 kcal/mol|
 --------------------------------------------------------


-------------------
GIBBS FREE ENERGY
-------------------

The Gibbs free energy is G = H - T*S

Total enthalpy                    ...   -928.20296479 Eh 
Total entropy correction          ...     -0.05519227 Eh    -34.63 kcal/mol
-----------------------------------------------------------------------
Final Gibbs free energy         ...   -928.25815707 Eh

For completeness - the Gibbs free energy minus the electronic energy
G-E(el)                           ...      0.04076585 Eh     25.58 kcal/mol


The first frequency considered to be a vibration is 6
The total number of vibrations considered is 39


--------------------------
THERMOCHEMISTRY AT 340.00K
--------------------------

Temperature         ...   340.00 K
Pressure            ...     1.00 atm
Total Mass          ...   200.05 AMU
Quasi RRHO          ...     True
Cut-Off Frequency   ...     1.00 cm^-1

Throughout the following assumptions are being made:
  (1) The electronic state is orbitally nondegenerate
  (2) There are no thermally accessible electronically excited states
  (3) Hindered rotations indicated by low frequency modes are not
      treated as such but are treated as vibrations and this may
      cause some error
  (4) All equations used are the standard statistical mechanics
      equations for an ideal gas
  (5) All vibrations are strictly harmonic

freq.      15.91  E(vib)   ...       0.65 
freq.      42.30  E(vib)   ...       0.62 
freq.      69.05  E(vib)   ...       0.58 
freq.      85.75  E(vib)   ...       0.56 
freq.     133.02  E(vib)   ...       0.50 
freq.     193.57  E(vib)   ...       0.44 
freq.     224.81  E(vib)   ...       0.40 
freq.     245.75  E(vib)   ...       0.38 
freq.     308.00  E(vib)   ...       0.33 
freq.     351.45  E(vib)   ...       0.29 
freq.     388.05  E(vib)   ...       0.27 
freq.     432.42  E(vib)   ...       0.24 
freq.     514.46  E(vib)   ...       0.19 
freq.     527.29  E(vib)   ...       0.18 
freq.     539.62  E(vib)   ...       0.18 
freq.     578.84  E(vib)   ...       0.16 
freq.     587.04  E(vib)   ...       0.15 
freq.     643.59  E(vib)   ...       0.13 
freq.     768.50  E(vib)   ...       0.09 
freq.     837.88  E(vib)   ...       0.07 
freq.     868.76  E(vib)   ...       0.06 
freq.     965.31  E(vib)   ...       0.05 
freq.    1035.64  E(vib)   ...       0.04 
freq.    1081.69  E(vib)   ...       0.03 
freq.    1113.68  E(vib)   ...       0.03 
freq.    1129.00  E(vib)   ...       0.03 
freq.    1151.85  E(vib)   ...       0.03 
freq.    1166.62  E(vib)   ...       0.02 
freq.    1195.86  E(vib)   ...       0.02 
freq.    1280.46  E(vib)   ...       0.02 
freq.    1287.32  E(vib)   ...       0.02 
freq.    1301.78  E(vib)   ...       0.02 
freq.    1358.89  E(vib)   ...       0.01 
freq.    1415.84  E(vib)   ...       0.01 
freq.    1448.79  E(vib)   ...       0.01 
freq.    1496.99  E(vib)   ...       0.01 
freq.    3070.09  E(vib)   ...       0.00 
freq.    3098.89  E(vib)   ...       0.00 
freq.    3127.91  E(vib)   ...       0.00 

------------
INNER ENERGY
------------

The inner energy is: U= E(el) + E(ZPE) + E(vib) + E(rot) + E(trans)
    E(el)   - is the total energy from the electronic structure calculation
              = E(kin-el) + E(nuc-el) + E(el-el) + E(nuc-nuc)
    E(ZPE)  - the the zero temperature vibrational energy from the frequency calculation
    E(vib)  - the the finite temperature correction to E(ZPE) due to population
              of excited vibrational states
    E(rot)  - is the rotational thermal energy
    E(trans)- is the translational thermal energy

Summary of contributions to the inner energy U:
Electronic energy                ...   -928.29892292 Eh
Zero point energy                ...      0.08220240 Eh      51.58 kcal/mol
Thermal vibrational correction   ...      0.01084158 Eh       6.80 kcal/mol
Thermal rotational correction    ...      0.00161507 Eh       1.01 kcal/mol
Thermal translational correction ...      0.00161507 Eh       1.01 kcal/mol
-----------------------------------------------------------------------
Total thermal energy                   -928.20264881 Eh


Summary of corrections to the electronic energy:
(perhaps to be used in another calculation)
Total thermal correction                  0.01407171 Eh       8.83 kcal/mol
Non-thermal (ZPE) correction              0.08220240 Eh      51.58 kcal/mol
-----------------------------------------------------------------------
Total correction                          0.09627411 Eh      60.41 kcal/mol


--------
ENTHALPY
--------

The enthalpy is H = U + kB*T
                kB is Boltzmann's constant
Total thermal energy              ...   -928.20264881 Eh 
Thermal Enthalpy correction       ...      0.00107674 Eh       0.68 kcal/mol
-----------------------------------------------------------------------
Total Enthalpy                    ...   -928.20157207 Eh


Note: Only C1 symmetry has been detected, increase convergence thresholds 
      if your molecule has a higher symmetry. Symmetry factor of 1.0 is   
      used for the rotational entropy correction. 
 

Note: Rotational entropy computed according to Herzberg 
Infrared and Raman Spectra, Chapter V,1, Van Nostrand Reinhold, 1945 
Point Group:  C1, Symmetry Number:   1  
Rotational constants in cm-1:     0.063060     0.014937     0.014099 

Vibrational entropy computed according to the QRRHO of S. Grimme
Chem.Eur.J. 2012 18 9955 using a reference frequency of 100.0 cm-1


-------
ENTROPY
-------

The entropy contributions are T*S = T*(S(el)+S(vib)+S(rot)+S(trans))
     S(el)   - electronic entropy
     S(vib)  - vibrational entropy
     S(rot)  - rotational entropy
     S(trans)- translational entropy
The entropies will be listed as multiplied by the temperature to get
units of energy

Electronic entropy                ...      0.00000000 Eh      0.00 kcal/mol
Vibrational entropy               ...      0.01985738 Eh     12.46 kcal/mol
Rotational entropy                ...      0.01710326 Eh     10.73 kcal/mol
Translational entropy             ...      0.02299358 Eh     14.43 kcal/mol
-----------------------------------------------------------------------
Final entropy term                ...      0.05995422 Eh     37.62 kcal/mol

In case the symmetry of your molecule has not been determined correctly
or in case you have a reason to use a different symmetry number we print 
out the resulting rotational entropy values for sn=1,12:

 non-linear molecules -----------------------------------
|  sn= 1 | S(rot)=       0.01710326 Eh     10.73 kcal/mol|
|  sn= 2 | S(rot)=       0.01635694 Eh     10.26 kcal/mol|
|  sn= 3 | S(rot)=       0.01592037 Eh      9.99 kcal/mol|
|  sn= 4 | S(rot)=       0.01561062 Eh      9.80 kcal/mol|
|  sn= 5 | S(rot)=       0.01537036 Eh      9.65 kcal/mol|
|  sn= 6 | S(rot)=       0.01517405 Eh      9.52 kcal/mol|
|  sn= 7 | S(rot)=       0.01500807 Eh      9.42 kcal/mol|
|  sn= 8 | S(rot)=       0.01486430 Eh      9.33 kcal/mol|
|  sn= 9 | S(rot)=       0.01473748 Eh      9.25 kcal/mol|
|  sn=10 | S(rot)=       0.01462404 Eh      9.18 kcal/mol|
|  sn=11 | S(rot)=       0.01452142 Eh      9.11 kcal/mol|
|  sn=12 | S(rot)=       0.01442773 Eh      9.05 kcal/mol|
 linear molecules ---------------------------------------
|  Dinfh | S(rot)=       0.01080336 Eh      6.78 kcal/mol|
|  Cinfv | S(rot)=       0.01154968 Eh      7.25 kcal/mol|
 --------------------------------------------------------


-------------------
GIBBS FREE ENERGY
-------------------

The Gibbs free energy is G = H - T*S

Total enthalpy                    ...   -928.20157207 Eh 
Total entropy correction          ...     -0.05995422 Eh    -37.62 kcal/mol
-----------------------------------------------------------------------
Final Gibbs free energy         ...   -928.26152629 Eh

For completeness - the Gibbs free energy minus the electronic energy
G-E(el)                           ...      0.03739663 Eh     23.47 kcal/mol


Maximum memory used throughout the entire PROP-calculation: 107.5 MB

--------------------------------
SUGGESTED CITATIONS FOR THIS RUN
--------------------------------

Below you find a list of papers that are relevant to this ORCA run
We neither can nor want to force you to cite these papers, but we appreciate if you do
You receive ORCA, which is the product of decades of hard work by many enthusiastic individuals, for free
The only thing we kindly ask in return is that you cite our papers,
We deeply appreciate it, if you show your appreciation for ORCA by not just citing the generic ORCA reference.

Please note that relegating all ORCA citations to the supporting information does *not* help us.
SI sections are not indexed - citations you put there will not count into any citation statistics
But we need these citations in order to attract the funding resources that allow us to do what we are doing

Therefore, if you are a happy ORCA user, please consider citing a few of the papers listed below in the main body of your paper

In addition to the list printed below, the program has created the file HFE_347pcf2_anti.bibtex that contains the list in bibtex format
You can import this file easily into all common literature databanks and citation aid programs

It goes without saying that in many instances, there are alternative algorithms to achieve similar
results as the ones you have gotten from ORCA. It is, of course, also the case that in some instances
ORCA just re-implements algorithms worked out by others. We are fully aware of that and we are also
fully appreciative of our colleagues work. Hence this citation list should not be read as indicating
that the listed papers, which are focused on our own work, are the only ones worth citing. It simply
meant to make it easier for users to cite ORCA specific papers. It is not a substitute for doing your
own literature research and citing the relevant literature in a scientifically appropriate manner.

List of essential papers. We consider these as the minimum necessary citations

  1. Neese, F.
     Software update: the ORCA program system, version 6.0
     WIRES Comput. Molec. Sci. 2025 15(1), e70019
     doi.org/10.1002/wcms.70019

List of papers to cite with high priority. The work reported in these papers was absolutely
necessary for this run to complete.
Our perspective: the developers of density functionals and basis sets usually get cited in chemistry papers
Good! But without the algorithms to do something with them, the functionals or basis sets would not do anything.
Hence, in our opinion, the algorithm design and method developments papers are equally worthy of getting cited

  1. Neese, F.
     An improvement of the resolution of the identity approximation for the formation of the Coulomb matrix
     J. Comp. Chem. 2003 24(14), 1740-1747
     doi.org/10.1002/jcc.10318
  2. Neese, F.; Wennmohs, F.; Hansen, A.; Becker, U.
     Efficient, approximate and parallel Hartree-Fock and hybrid DFT calculations. A 'chain-of-spheres' algorithm for the Hartree-Fock exchange
     Chem. Phys. 2009 356(1-3), 98-109
     doi.org/10.1016/j.chemphys.2008.10.036
  3. Bykov, D.; Petrenko, T.; Izsak, R.; Kossmann, S.; Becker, U.; Valeev, E.; Neese, F.
     Efficient implementation of the analytic second derivatives of Hartree-Fock and hybrid DFT energies: a detailed analysis of different approximations
     Molec. Phys. 2015 113 , 1961-1977
     doi.org/10.1080/00268976.2015.1025114
  4. Helmich-Paris, B.; de Souza, B.; Neese, F.; Izsák, R.
     An improved chain of spheres for exchange algorithm
     J. Chem. Phys. 2021 155(10), 104109
     doi.org/10.1063/5.0058766
  5. Neese, F.
     The SHARK Integral Generation and Digestion System
     J. Comp. Chem. 2022 44(3), 381
     doi.org/10.1002/jcc.26942

List of suggested additional citations. These are papers that are important in the 'surrounding' of 
of this run, or papers that preceded the highly important papers. If you like your results we are grateful for a citation.

  1. Izsak, R.; Neese, F.
     An overlap fitted chain of spheres exchange method
     J. Chem. Phys. 2011 135 , 144105
     doi.org/10.1063/1.3646921
  2. Izsak, R.; Hansen, A.; Neese, F.
     The resolution of identity and chain of spheres approximations for the LPNO-CCSD singles Fock term
     Molec. Phys. 2012 110 , 2413-2417
     doi.org/10.1080/00268976.2012.687466
  3. Neese, F.
     The ORCA program system
     WIRES Comput. Molec. Sci. 2012 2(1), 73-78
     doi.org/10.1002/wcms.81
  4. Izsak, R.; Neese, F.; Klopper, W.
     Robust fitting techniques in the chain of spheres approximation to the Fock exchange: The role of the complementary space
     J. Chem. Phys. 2013 139 , 
     doi.org/10.1063/1.4819264
  5. Neese, F.
     Software update: the ORCA program system, version 4.0
     WIRES Comput. Molec. Sci. 2018 8(1), 1-6
     doi.org/10.1002/wcms.1327
  6. Neese, F.; Wennmohs, F.; Becker, U.; Riplinger, C.
     The ORCA quantum chemistry program package
     J. Chem. Phys. 2020 152(22), 224108
     doi.org/10.1063/5.0004608
  7. Neese, F.
     Software update: The ORCA program system—Version 5.0
     WIRES Comput. Molec. Sci. 2022 12(1), e1606
     doi.org/10.1002/wcms.1606

List of optional additional citations

  1. Neese, F.
     Approximate second-order SCF convergence for spin unrestricted wavefunctions
     Chem. Phys. Lett. 2000 325(1-3), 93-98
     doi.org/10.1016/s0009-2614(00)00662-x

Timings for individual modules:

Sum of individual times          ...     3167.243 sec (=  52.787 min)
Startup calculation              ...       24.610 sec (=   0.410 min)   0.8 %
SCF iterations                   ...      742.069 sec (=  12.368 min)  23.4 %
Property integrals               ...      245.967 sec (=   4.099 min)   7.8 %
SCF Response                     ...      163.013 sec (=   2.717 min)   5.1 %
Property calculations            ...     1494.228 sec (=  24.904 min)  47.2 %
SCF Gradient evaluation          ...      496.771 sec (=   8.280 min)  15.7 %
Geometry relaxation              ...        0.586 sec (=   0.010 min)   0.0 %
                             ****ORCA TERMINATED NORMALLY****
TOTAL RUN TIME: 0 days 0 hours 52 minutes 50 seconds 291 msec
