
                                 *****************
                                 * O   R   C   A *
                                 *****************

                                            #,                                       
                                            ###                                      
                                            ####                                     
                                            #####                                    
                                            ######                                   
                                           ########,                                 
                                     ,,################,,,,,                         
                               ,,#################################,,                 
                          ,,##########################################,,             
                       ,#########################################, ''#####,          
                    ,#############################################,,   '####,        
                  ,##################################################,,,,####,       
                ,###########''''           ''''###############################       
              ,#####''   ,,,,##########,,,,          '''####'''          '####       
            ,##' ,,,,###########################,,,                        '##       
           ' ,,###''''                  '''############,,,                           
         ,,##''                                '''############,,,,        ,,,,,,###''
      ,#''                                            '''#######################'''  
     '                                                          ''''####''''         
             ,#######,   #######,   ,#######,      ##                                
            ,#'     '#,  ##    ##  ,#'     '#,    #''#        ,####,    ,#,          
            ##       ##  ##   ,#'  ##            #'  '#       #'       ,# #          
            ##       ##  #######   ##           ,######,      #####,      #          
            '#,     ,#'  ##    ##  '#,     ,#' ,#      #,     #,   #      #          
             '#######'   ##     ##  '#######'  #'      '#     '####' #    #          



                #########################################################
                #                        -***-                          #
                #          Department of theory and spectroscopy        #
                #                                                       #
                #                      Frank Neese                      #
                #                                                       #
                #     Directorship, Architecture, Infrastructure        #
                #                    SHARK, DRIVERS                     #
                #        Core code/Algorithms in most modules           #
                #                                                       #
                #        Max Planck Institute fuer Kohlenforschung      #
                #                Kaiser Wilhelm Platz 1                 #
                #                 D-45470 Muelheim/Ruhr                 #
                #                      Germany                          #
                #                                                       #
                #                  All rights reserved                  #
                #                        -***-                          #
                #########################################################


                         Program Version 6.1.0  -  RELEASE   -
                                (GIT: $679e74b$)
                          ($2025-06-10 18:02:51 +0200$)


 With contributions from (in alphabetic order):
[Max-Planck-Institut fuer Kohlenforschung]                               
  Daniel Aravena         : Magnetic Suceptibility                        
  Michael Atanasov       : Ab Initio Ligand Field Theory (pilot matlab implementation)
  Alexander A. Auer      : GIAO ZORA, VPT2 properties, NMR spectrum      
  Ute Becker             : All parallelization in ORCA, NUMFREQ, NUMCALC 
  Giovanni Bistoni       : ED, misc. LED, open-shell LED, HFLD           
  Dmytro Bykov           : pre 5.0 version of the SCF Hessian            
  Marcos Casanova-Páez   : Triplet and SCS-CIS(D). UHF-(DLPNO)-IP/EA/STEOM-CCSD. UHF-CVS-IP/STEOM-CCSD   
  Vijay G. Chilkuri      : MRCI spin determinant printing, contributions to CSF-ICE 
  Pauline Colinet        : FMM embedding                                 
  Dipayan Datta          : RHF DLPNO-CCSD density                        
  Achintya Kumar Dutta   : EOM-CC, STEOM-CC                              
  Nicolas Foglia         : Exact transition moments, OPA infrastructure, MCD improvements    
  Dmitry Ganyushin       : Spin-Orbit,Spin-Spin,Magnetic field MRCI      
  Miquel Garcia-Rates    : C-PCM and meta-GGA Hessian, CCSD/C-PCM, Gaussian charge scheme 
  Tiago L. C. Gouveia    : GS-ROHF, GS-ROCIS                             
  Yang Guo               : DLPNO-NEVPT2, F12-NEVPT2, CIM, IAO-localization        
  Andreas Hansen         : Spin unrestricted coupled pair/coupled cluster methods 
  Ingolf Harden          : AUTO-CI MPn and infrastructure                
  Benjamin Helmich-Paris : MC-RPA, TRAH-(SCF,CASSCF), AVAS, COSX integrals, SCF dyn. polar., MC-PDFT, srDFT 
  Lee Huntington         : MR-EOM, pCC                                   
  Robert Izsak           : Overlap fitted RIJCOSX, COSX-SCS-MP3, EOM     
  Riya Kayal             : Wick's Theorem for AUTO-CI, AUTO-CI UHF-CCSDT 
  Emily Kempfer          : AUTO-CI RHF CISDT and CCSDT, approximate NEVPT4
  Christian Kollmar      : KDIIS, OOCD, Brueckner-CCSD(T), CCSD density, CASPT2, CASPT2-K, improved NEVPT2 
  Axel Koslowski         : Symmetry handling                             
  Simone Kossmann        : meta-GGA functionals, TD-DFT gradient, OOMP2, (MP2 Hessian; deprecated post 5.0) 
  Lucas Lang             : DCDCAS, Hyperfine gauge corrections, ICE-SOC+SSC
  Marvin Lechner         : AUTO-CI (C++ implementation), FIC-MRCC        
  Spencer Leger          : CASSCF response                               
  Dagmar Lenk            : GEPOL surface, SMD, ORCA-2-JSON               
  Dimitrios Liakos       : Extrapolation schemes; Compound Job, Property file
  Dimitrios Manganas     : Further ROCIS development; embedding schemes. LFT, Crystal Embedding 
  Dimitrios Pantazis     : SARC Basis sets                               
  Anastasios Papadopoulos: AUTO-CI, single reference methods and gradients 
  Taras Petrenko         : pre 6.0 DFT Hessian and TD-DFT gradient,  ECA, NRVS 
  Petra Pikulova         : Analytic Raman intensities                    
  Peter Pinski           : DLPNO-MP2, DLPNO-MP2 Gradient                 
  Shashank Vittal Rao    : ES-AILFT, MagRelax                            
  Christoph Reimann      : Effective Core Potentials                     
  Marius Retegan         : Local ZFS, SOC                                
  Christoph Riplinger    : Optimizer, TS searches, QM/MM, DLPNO-CCSD(T), (RO)-DLPNO pert. Triples 
  Michael Roemelt        : Original ROCIS implementation, recursive CI coupling coefficients
  Masaaki Saitow         : Open-shell DLPNO-CCSD energy and density      
  Barbara Sandhoefer     : DKH picture change effects                    
  Yorick L. A. Schmerwitz: GMF and freeze-and-release deltaSCF, NEB S-IDPP initial path                    
  Kantharuban Sivalingam : CASSCF convergence/infrastructure, NEVPT2, NEVPT3, NEVPT4(SD), FIC-MRCI and CEPA variants
  Bernardo de Souza      : ESD, SOC TD-DFT                               
  Georgi L. Stoychev     : AutoAux, RI-MP2 NMR, DLPNO-MP2 response, X2C  
  Van Anh Tran           : RI-MP2 g-tensors                              
  Willem Van den Heuvel  : Paramagnetic NMR                              
  Zikuan Wang            : NOTCH, Electric field optimization            
  Frank Wennmohs         : Technical directorship and infrastructure     
  Hang Xu                : AUTO-CI-Response properties                   
                                                                         
[FACCTs GmbH]                                                            
  Markus Bursch, Nicolas Foglia, Miquel Garcia-Rates, Ingolf Harden, Hagen Neugebauer, Anastasios Papadopoulos, 
  Christoph Riplinger, Bernardo de Souza, Georgi L. Stoychev                                                    
                                                                 
  APM, various basis sets, CI-OPT, improved COSX, DLPNO-Multilevel,           
  DOCKER, DRACO, updates on ESD, Fragmentator, GOAT, IRC, LR-CPCM, L-BFGS, MBIS, meta-GGA TD-DFT gradient, ML-optimized integration grids, 
  MM, NACMEs, nearIR, NEB, NEB-TS, NL-DFT gradient (VV10), 2- and 3-layer-ONIOM, interface openCOSMO-RS, QMMM,   
  Crystal-QMMM, RESP, rigid body optimization, SF, symmetry and pop. for TD-DFT, various functionals, SOLVATOR                                   
                                                                         
[Other institutions]                                                     
  V. Asgeirsson          : NEB                                           
  Christoph Bannwarth    : sTDA-DFT, sTD-DFT, PBEh-3c, B97-3c, D3        
  Giovanni Bistoni       : ETS/NOCV, ADLD/ADEX, COVALED                  
  Martin Brehm           : Molecular dynamics                            
  Ronald Cardenas        : ETS/NOCV                                      
  Martina Colucci        : COVALED                                       
  Sebastian Ehlert       : rSCAN, r2SCAN, r2SCAN-3c, D4, dhf basis sets  
  Marvin Friede          : D4 for Fr, Ra, Ac-Lr                          
  Lars Goerigk           : TD-DFT with DH, B97 family of functionals     
  Stefan Grimme          : VdW corrections, initial TS optimization, DFT functionals, gCP, sTDA/sTD-DF 
  Waldemar Hujo          : DFT-NL                                        
  H. Jonsson             : NEB                                           
  Holger Kruse           : gCP                                           
  Marcel Mueller         : wB97X-3c, vDZP basis set                      
  Hagen Neugebauer       : wr2SCAN, Native XTB                           
  Gianluca Regni         : ADLD/ADEX                                     
  Tobias Risthaus        : pre 6.0 range-separated hybrid DFT and stability analysis
  Lukas Wittmann         : regularized MP2, r2SCAN double-hybrids, wr2SCAN        
                                                                         
We gratefully acknowledge several colleagues who have allowed us to      
interface, adapt or use parts of their codes:                            
  Ed Valeev, F. Pavosevic, A. Kumar             : LibInt (2-el integral package), F12 methods 
  Garnet Chan, S. Sharma, J. Yang, R. Olivares  : DMRG                   
  Ulf Ekstrom                                   : XCFun DFT Library      
  Mihaly Kallay                                 : mrcc  (arbitrary order and MRCC methods)
  Frank Weinhold                                : gennbo (NPA and NBO analysis)           
  Simon Mueller                                 : openCOSMO-RS                            
  Christopher J. Cramer and Donald G. Truhlar   : smd solvation model                     
  S Lehtola, MJT Oliveira, MAL Marques          : LibXC Library                           
  Liviu Ungur et al                             : ANISO software                          


 Your calculation uses the libint2 library for the computation of 2-el integrals
 For citations please refer to: http://libint.valeyev.net

 Your ORCA version has been built with support for libXC version: 7.0.0
 For citations please refer to: https://libxc.gitlab.io

 This ORCA versions uses:
   CBLAS   interface :  Fast vector & matrix operations
   LAPACKE interface :  Fast linear algebra routines
   SCALAPACK package :  Parallel linear algebra routines
   Shared memory     :  Shared parallel matrices
   BLAS/LAPACK       :  OpenBLAS 0.3.29  USE64BITINT DYNAMIC_ARCH NO_AFFINITY Haswell SINGLE_THREADED
        Core in use  :  Haswell
   Copyright (c) 2011-2014, The OpenBLAS Project


  ***********************************
  * Starting time: Wed Feb 11 16:36:49 2026
  * Host name:     BOOK-611GI2U5BQ
  * Process ID:    373275
  * Working dir.:  /home/a_limbo/IR_LAB_2027/data/HFE-347pcf2/B3PW91_6_31Gd/ORCA_files
  ***********************************

Warning: RI is on but no J-basis has been assigned. Assigning Def2/J (nothing to worry about!)
================================================================================

----- Orbital basis set information -----
Your calculation utilizes the basis: 6-31G(d)
   H-He, Li-Ne : W. J. Hehre, R. Ditchfield and J.A. Pople, J. Chem. Phys. 56, 2257 (1972).
                 Note: He and Ne are unpublished basis sets taken from the Gaussian program.
                 Note: Li and B from J. D. Dill and J. A. Pople, J. Chem. Phys. 62, 2921 (1975).
   Na - Ar     : M. M. Francl, W. J. Pietro, W. J. Hehre, J. S. Binkley, M. S. Gordon, 
                 D. J. DeFrees and J. A. Pople, J. Chem. Phys. 77, 3654 (1982).
   K - Zn      : V. A. Rassolov, J. A. Pople, M. A. Ratner, and T. L. Windus, J. Chem. Phys. 109, 1223 (1998).

----- AuxJ basis set information -----
Your calculation utilizes the auxiliary basis: def2/J
   H-Rn: F. Weigend, Phys. Chem. Chem. Phys. 8, 1057 (2006).
   Fr-Lr: K. Eichkorn, F. Weigend, O. Treutler, R. Ahlrichs; Theor. Chem. Acc. 97, 119 (1997).

================================================================================
                                        WARNINGS
                       Please study these warnings very carefully!
================================================================================

WARNING: Old DensityContainer found on disk!
         Will remove this file - 
         If you want to keep old densities, please start your calculation with a different basename. 


WARNING: Geometry Optimization
  ===> : Switching off AutoStart
         For restart on a previous wavefunction, please use MOREAD

================================================================================
                                       INPUT FILE
================================================================================
NAME = HFE_347pcf2_anti.inp
|  1> # avogadro generated ORCA input file 
|  2> # Basic Mode
|  3> # 
|  4> ! B3PW91 6-31G(d) OPT FREQ 
|  5> % FREQ TEMP 305, 320, 340 END
|  6> 
|  7> * xyz 0 1
|  8>    F        1.28530       -1.62240        0.56030
|  9>    F        1.38880       -0.59790       -1.37380
| 10>    F        2.29800        1.67070       -0.14090
| 11>    F        3.53230       -0.08800        0.20960
| 12>    F       -2.56250        0.28010        1.34490
| 13>    F       -3.46870       -0.64150       -0.41230
| 14>    F       -2.46550        1.29230       -0.58450
| 15>    O       -0.03940        0.17810        0.20870
| 16>    C        1.23030       -0.41010       -0.04230
| 17>    C       -1.11330       -0.61630       -0.27520
| 18>    C        2.32920        0.47050        0.48930
| 19>    C       -2.41470        0.08470        0.01630
| 20>    H       -1.10420       -1.59410        0.21820
| 21>    H       -1.01120       -0.76410       -1.35560
| 22>    H        2.25350        0.63630        1.56730
| 23> *
| 24> 
| 25> 
| 26>                          ****END OF INPUT****
================================================================================

                       *****************************
                       * Geometry Optimization Run *
                       *****************************

Geometry optimization settings:
Update method            Update   .... BFGS
Choice of coordinates    CoordSys .... (2022) Redundant Internals
Initial Hessian          InHess   .... Almloef's Model
Max. no of cycles        MaxIter  .... 50

Convergence Tolerances:
Energy Change            TolE     ....  5.0000e-06 Eh
Max. Gradient            TolMAXG  ....  3.0000e-04 Eh/bohr
RMS Gradient             TolRMSG  ....  1.0000e-04 Eh/bohr
Max. Displacement        TolMAXD  ....  4.0000e-03 bohr
RMS Displacement         TolRMSD  ....  2.0000e-03 bohr
Strict Convergence                .... False

------------------------------------------------------------------------------
                        ORCA OPTIMIZATION COORDINATE SETUP
------------------------------------------------------------------------------

The optimization will be done in redundant internal coordinates (2022)
Making redundant internal coordinates   ...  (2022 redundants) done
Evaluating the initial hessian          ...  (Almloef) done
Evaluating the coordinates              ...  done
Calculating the B-matrix                .... done
Calculating the G-matrix                .... done
The number of degrees of freedom        ....   57

    -----------------------------------------------------------------
                    Redundant Internal Coordinates


    -----------------------------------------------------------------
         Definition                    Initial Value    Approx d2E/dq
    -----------------------------------------------------------------
      1. B(C   8,F   1)                  1.3540         0.593501   
      2. B(C   8,O   7)                  1.4217         0.498154   
      3. B(C   8,F   0)                  1.3549         0.591461   
      4. B(C   9,O   7)                  1.4207         0.499848   
      5. B(C  10,F   3)                  1.3556         0.590035   
      6. B(C  10,C   8)                  1.5052         0.409204   
      7. B(C  10,F   2)                  1.3560         0.589235   
      8. B(C  11,F   6)                  1.3498         0.602802   
      9. B(C  11,F   5)                  1.3498         0.602686   
     10. B(C  11,C   9)                  1.5067         0.407024   
     11. B(C  11,F   4)                  1.3510         0.600049   
     12. B(H  12,C   9)                  1.0953         0.353194   
     13. B(H  13,C   9)                  1.0952         0.353245   
     14. B(H  14,C  10)                  1.0933         0.355761   
     15. A(C   8,O   7,C   9)          112.5571         0.396640   
     16. A(F   1,C   8,C  10)          110.0593         0.395722   
     17. A(F   1,C   8,O   7)          109.6064         0.407047   
     18. A(O   7,C   8,C  10)          110.3420         0.385457   
     19. A(F   0,C   8,C  10)          109.6787         0.395483   
     20. A(F   0,C   8,F   1)          107.9693         0.417803   
     21. A(F   0,C   8,O   7)          109.1426         0.406799   
     22. A(H  12,C   9,H  13)          108.8524         0.289084   
     23. A(C  11,C   9,H  13)          109.5217         0.327889   
     24. A(O   7,C   9,H  13)          109.9364         0.337200   
     25. A(C  11,C   9,H  12)          109.5961         0.327881   
     26. A(O   7,C   9,H  12)          109.8442         0.337192   
     27. A(O   7,C   9,C  11)          109.0777         0.385327   
     28. A(F   3,C  10,H  14)          109.1096         0.345669   
     29. A(F   2,C  10,H  14)          108.8104         0.345590   
     30. A(F   2,C  10,F   3)          106.8101         0.417087   
     31. A(F   3,C  10,C   8)          109.5141         0.395316   
     32. A(C   8,C  10,H  14)          112.7309         0.328563   
     33. A(F   2,C  10,C   8)          109.6878         0.395222   
     34. A(F   4,C  11,C   9)          110.6131         0.396113   
     35. A(F   5,C  11,F   6)          108.0963         0.420369   
     36. A(F   4,C  11,F   6)          107.7112         0.420040   
     37. A(F   4,C  11,F   5)          107.7371         0.420026   
     38. A(F   6,C  11,C   9)          111.2635         0.396432   
     39. A(F   5,C  11,C   9)          111.2676         0.396418   
     40. D(F   1,C   8,O   7,C   9)     58.6402         0.019614   
     41. D(F   0,C   8,O   7,C   9)    -59.4143         0.019614   
     42. D(C  10,C   8,O   7,C   9)    179.9982         0.019614   
     43. D(H  13,C   9,O   7,C   8)    -59.2366         0.019752   
     44. D(H  12,C   9,O   7,C   8)     60.5210         0.019752   
     45. D(C  11,C   9,O   7,C   8)   -179.3404         0.019752   
     46. D(F   2,C  10,C   8,F   0)    178.2766         0.013266   
     47. D(F   3,C  10,C   8,O   7)   -178.3733         0.013266   
     48. D(F   3,C  10,C   8,F   1)    -57.2848         0.013266   
     49. D(F   3,C  10,C   8,F   0)     61.3607         0.013266   
     50. D(F   2,C  10,C   8,O   7)    -61.4574         0.013266   
     51. D(F   2,C  10,C   8,F   1)     59.6311         0.013266   
     52. D(F   4,C  11,C   9,H  13)   -179.9158         0.013129   
     53. D(F   4,C  11,C   9,H  12)     60.7346         0.013129   
     54. D(F   4,C  11,C   9,O   7)    -59.5568         0.013129   
     55. D(F   5,C  11,C   9,H  13)     60.3697         0.013129   
     56. D(F   5,C  11,C   9,H  12)    -58.9800         0.013129   
     57. D(F   5,C  11,C   9,O   7)   -179.2714         0.013129   
    -----------------------------------------------------------------

Number of atoms                         .... 15
Number of degrees of freedom            .... 57


         *************************************************************
         *                GEOMETRY OPTIMIZATION CYCLE   1            *
         *************************************************************
---------------------------------
CARTESIAN COORDINATES (ANGSTROEM)
---------------------------------
  F      1.285300   -1.622400    0.560300
  F      1.388800   -0.597900   -1.373800
  F      2.298000    1.670700   -0.140900
  F      3.532300   -0.088000    0.209600
  F     -2.562500    0.280100    1.344900
  F     -3.468700   -0.641500   -0.412300
  F     -2.465500    1.292300   -0.584500
  O     -0.039400    0.178100    0.208700
  C      1.230300   -0.410100   -0.042300
  C     -1.113300   -0.616300   -0.275200
  C      2.329200    0.470500    0.489300
  C     -2.414700    0.084700    0.016300
  H     -1.104200   -1.594100    0.218200
  H     -1.011200   -0.764100   -1.355600
  H      2.253500    0.636300    1.567300

----------------------------
CARTESIAN COORDINATES (A.U.)
----------------------------
  NO LB      ZA    FRAG     MASS         X           Y           Z
   0 F     9.0000    0    18.998    2.428865   -3.065892    1.058814
   1 F     9.0000    0    18.998    2.624452   -1.129867   -2.596106
   2 F     9.0000    0    18.998    4.342591    3.157165   -0.266262
   3 F     9.0000    0    18.998    6.675080   -0.166296    0.396087
   4 F     9.0000    0    18.998   -4.842423    0.529312    2.541493
   5 F     9.0000    0    18.998   -6.554893   -1.212259   -0.779134
   6 F     9.0000    0    18.998   -4.659120    2.442093   -1.104545
   7 O     8.0000    0    15.999   -0.074455    0.336560    0.394386
   8 C     6.0000    0    12.011    2.324930   -0.774977   -0.079935
   9 C     6.0000    0    12.011   -2.103832   -1.164638   -0.520053
  10 C     6.0000    0    12.011    4.401550    0.889116    0.924643
  11 C     6.0000    0    12.011   -4.563122    0.160060    0.030803
  12 H     1.0000    0     1.008   -2.086636   -3.012412    0.412338
  13 H     1.0000    0     1.008   -1.910891   -1.443940   -2.561713
  14 H     1.0000    0     1.008    4.258498    1.202433    2.961768

--------------------------------
INTERNAL COORDINATES (ANGSTROEM)
--------------------------------
 F      0   0   0     0.000000000000     0.00000000     0.00000000
 F      1   0   0     2.191131057240     0.00000000     0.00000000
 F      2   1   0     2.737377031028    90.32221911     0.00000000
 F      3   2   1     2.177009974713    65.87822430    57.47134963
 F      1   2   3     4.363561418154    89.80003295    81.40692274
 F      5   1   2     2.181352066953    92.13639085    60.38889849
 F      5   1   2     2.180949838946    90.23279504     0.27539853
 O      1   2   3     2.262797582640    61.21372454    63.40901423
 C      2   1   3     1.353987939385    36.02974168   332.88082369
 C      8   1   2     1.420736351333    92.89588178    91.36341887
 C      4   3   2     1.355582513165    36.60073560   290.26676087
 C      7   5   1     1.349755177801    36.16371501    54.82331469
 H     10   8   1     1.095271295159   109.84416045    31.33842367
 H     10   8   1     1.095232126081   109.93641604   271.58082554
 H     11   4   3     1.093299652428   109.10960233   242.53891516

---------------------------
INTERNAL COORDINATES (A.U.)
---------------------------
 F      0   0   0     0.000000000000     0.00000000     0.00000000
 F      1   0   0     4.140637621712     0.00000000     0.00000000
 F      2   1   0     5.172892913929    90.32221911     0.00000000
 F      3   2   1     4.113952643022    65.87822430    57.47134963
 F      1   2   3     8.245936048856    89.80003295    81.40692274
 F      5   1   2     4.122158008204    92.13639085    60.38889849
 F      5   1   2     4.121397907428    90.23279504     0.27539853
 O      1   2   3     4.276067727688    61.21372454    63.40901423
 C      2   1   3     2.558666394070    36.02974168   332.88082369
 C      8   1   2     2.684802612527    92.89588178    91.36341887
 C      4   3   2     2.561679701815    36.60073560   290.26676087
 C      7   5   1     2.550667633886    36.16371501    54.82331469
 H     10   8   1     2.069762790196   109.84416045    31.33842367
 H     10   8   1     2.069688771365   109.93641604   271.58082554
 H     11   4   3     2.066036925401   109.10960233   242.53891516

---------------------
BASIS SET INFORMATION
---------------------
There are 4 groups of distinct atoms

 Group   1 Type F   : 10s4p1d contracted to 3s2p1d pattern {631/31/1}
 Group   2 Type O   : 10s4p1d contracted to 3s2p1d pattern {631/31/1}
 Group   3 Type C   : 10s4p1d contracted to 3s2p1d pattern {631/31/1}
 Group   4 Type H   : 4s contracted to 2s pattern {31}

Atom   0F    basis set group =>   1
Atom   1F    basis set group =>   1
Atom   2F    basis set group =>   1
Atom   3F    basis set group =>   1
Atom   4F    basis set group =>   1
Atom   5F    basis set group =>   1
Atom   6F    basis set group =>   1
Atom   7O    basis set group =>   2
Atom   8C    basis set group =>   3
Atom   9C    basis set group =>   3
Atom  10C    basis set group =>   3
Atom  11C    basis set group =>   3
Atom  12H    basis set group =>   4
Atom  13H    basis set group =>   4
Atom  14H    basis set group =>   4
---------------------------------
AUXILIARY/J BASIS SET INFORMATION
---------------------------------
There are 4 groups of distinct atoms

 Group   1 Type F   : 12s5p4d2f1g contracted to 6s4p3d1f1g pattern {711111/2111/211/2/1}
 Group   2 Type O   : 12s5p4d2f1g contracted to 6s4p3d1f1g pattern {711111/2111/211/2/1}
 Group   3 Type C   : 12s5p4d2f1g contracted to 6s4p3d1f1g pattern {711111/2111/211/2/1}
 Group   4 Type H   : 5s2p1d contracted to 3s1p1d pattern {311/2/1}

Atom   0F    basis set group =>   1
Atom   1F    basis set group =>   1
Atom   2F    basis set group =>   1
Atom   3F    basis set group =>   1
Atom   4F    basis set group =>   1
Atom   5F    basis set group =>   1
Atom   6F    basis set group =>   1
Atom   7O    basis set group =>   2
Atom   8C    basis set group =>   3
Atom   9C    basis set group =>   3
Atom  10C    basis set group =>   3
Atom  11C    basis set group =>   3
Atom  12H    basis set group =>   4
Atom  13H    basis set group =>   4
Atom  14H    basis set group =>   4
------------------------------------------------------------------------------
                             ORCA STARTUP CALCULATIONS
                           -- RI-GTO INTEGRALS CHOSEN --
------------------------------------------------------------------------------
------------------------------------------------------------------------------
                   ___                                                        
                  /   \      - P O W E R E D   B Y -                         
                 /     \                                                     
                 |  |  |   _    _      __       _____    __    __             
                 |  |  |  | |  | |    /  \     |  _  \  |  |  /  |          
                  \  \/   | |  | |   /    \    | | | |  |  | /  /          
                 / \  \   | |__| |  /  /\  \   | |_| |  |  |/  /          
                |  |  |   |  __  | /  /__\  \  |    /   |      \           
                |  |  |   | |  | | |   __   |  |    \   |  |\   \          
                \     /   | |  | | |  |  |  |  | |\  \  |  | \   \       
                 \___/    |_|  |_| |__|  |__|  |_| \__\ |__|  \__/        
                                                                              
                      - O R C A' S   B I G   F R I E N D -                    
                                      &                                       
                       - I N T E G R A L  F E E D E R -                       
                                                                              
 v1 FN, 2020, v2 2021, v3 2022-2024                                           
------------------------------------------------------------------------------


----------------------
SHARK INTEGRAL PACKAGE
----------------------

Number of atoms                             ...     15
Number of basis functions                   ...    174
Number of shells                            ...     78
Maximum angular momentum                    ...      2
Integral batch strategy                     ... SHARK/LIBINT Hybrid
RI-J (if used) integral strategy            ... SPLIT-RIJ (Revised 2003 algorithm where possible)
Printlevel                                  ...      1
Contraction scheme used                     ... SEGMENTED contraction
Prescreening option                         ... SCHWARTZ
   Thresh                                   ... 2.500e-11
   Tcut                                     ... 2.500e-12
   Tpresel                                  ... 2.500e-12 
Coulomb Range Separation                    ... NOT USED
Exchange Range Separation                   ... NOT USED
Multipole approximations                    ... NOT USED
Finite Nucleus Model                        ... NOT USED
CABS basis                                  ... NOT available
Auxiliary Coulomb fitting basis             ... AVAILABLE
   # of basis functions in Aux-J            ...    621
   # of shells in Aux-J                     ...    195
   Maximum angular momentum in Aux-J        ...      4
Auxiliary J/K fitting basis                 ... NOT available
Auxiliary Correlation fitting basis         ... NOT available
Auxiliary 'external' fitting basis          ... NOT available

Checking pre-screening integrals            ... done (  0.0 sec) Dimension = 78
   => SHARK Basis and OBASIS are compatible. Storing Pre-screening
Shell pair information
Shell pair cut-off parameter TPreSel        ...   2.5e-12
Total number of shell pairs                 ...      3081
Shell pairs after pre-screening             ...      2532
Total number of primitive shell pairs       ...     18789
Primitive shell pairs kept                  ...      9218
          la=0 lb=0:    704 shell pairs
          la=1 lb=0:    850 shell pairs
          la=1 lb=1:    272 shell pairs
          la=2 lb=0:    395 shell pairs
          la=2 lb=1:    247 shell pairs
          la=2 lb=2:     64 shell pairs

Checking whether 4 symmetric matrices of dimension 174 fit in memory
:Max Core in MB      =   4096.00
 MB in use           =      7.04
 MB left             =   4088.96
 MB needed           =      0.46
 Data fit in memory  = YES
Calculating RI/J V-Matrix + Cholesky decomp.... done (  0.1 sec)
Calculating Nuclear repulsion               ... done (  0.0 sec) ENN=    840.796475296706 Eh

Diagonalization of the overlap matrix:
Smallest eigenvalue                        ... 3.400e-03
Time for diagonalization                   ...    0.011 sec
Threshold for overlap eigenvalues          ... 1.000e-07
Number of eigenvalues below threshold      ... 0
Time for construction of square roots      ...    0.002 sec
Total time needed                          ...    0.015 sec

-------------------
DFT GRID GENERATION
-------------------

General Integration Accuracy     IntAcc      ... 4.388
Radial Grid Type                 RadialGrid  ... OptM3 with GC (2021)
Angular Grid (max. ang.)         AngularGrid ... 4 (Lebedev-302)
Angular grid pruning method      GridPruning ... 4 (adaptive)
Weight generation scheme         WeightScheme... mBecke (2022)
Basis function cutoff            BFCut       ... 1.0000e-11
Integration weight cutoff        WCut        ... 1.0000e-14
Partially contracted basis set               ... off
Rotationally invariant grid construction     ... off
Angular grids for H and He will be reduced by one unit

Total number of grid points                  ...    82588
Total number of batches                      ...     1298
Average number of points per batch           ...       63
Average number of grid points per atom       ...     5506

--------------------
COSX GRID GENERATION
--------------------

GRIDX 1
-------
General Integration Accuracy     IntAcc      ... 3.816
Radial Grid Type                 RadialGrid  ... OptM3 with GC (2021)
Angular Grid (max. ang.)         AngularGrid ... 1 (Lebedev-50)
Angular grid pruning method      GridPruning ... 4 (adaptive)
Weight generation scheme         WeightScheme... mBecke (2022)
Basis function cutoff            BFCut       ... 1.0000e-11
Integration weight cutoff        WCut        ... 1.0000e-14
Partially contracted basis set               ... on
Rotationally invariant grid construction     ... off
Angular grids for H and He will be reduced by one unit

Total number of grid points                  ...    10449
Total number of batches                      ...       90
Average number of points per batch           ...      116
Average number of grid points per atom       ...      697
UseSFitting                                  ... on

GRIDX 2
-------
General Integration Accuracy     IntAcc      ... 4.020
Radial Grid Type                 RadialGrid  ... OptM3 with GC (2021)
Angular Grid (max. ang.)         AngularGrid ... 2 (Lebedev-110)
Angular grid pruning method      GridPruning ... 4 (adaptive)
Weight generation scheme         WeightScheme... mBecke (2022)
Basis function cutoff            BFCut       ... 1.0000e-11
Integration weight cutoff        WCut        ... 1.0000e-14
Partially contracted basis set               ... on
Rotationally invariant grid construction     ... off
Angular grids for H and He will be reduced by one unit

Total number of grid points                  ...    24259
Total number of batches                      ...      196
Average number of points per batch           ...      123
Average number of grid points per atom       ...     1617
UseSFitting                                  ... on

GRIDX 3
-------
General Integration Accuracy     IntAcc      ... 4.338
Radial Grid Type                 RadialGrid  ... OptM3 with GC (2021)
Angular Grid (max. ang.)         AngularGrid ... 3 (Lebedev-194)
Angular grid pruning method      GridPruning ... 4 (adaptive)
Weight generation scheme         WeightScheme... mBecke (2022)
Basis function cutoff            BFCut       ... 1.0000e-11
Integration weight cutoff        WCut        ... 1.0000e-14
Partially contracted basis set               ... on
Rotationally invariant grid construction     ... off
Angular grids for H and He will be reduced by one unit

Total number of grid points                  ...    53583
Total number of batches                      ...      427
Average number of points per batch           ...      125
Average number of grid points per atom       ...     3572
UseSFitting                                  ... on
Grids setup in   1.8 sec
Initializing property integral containers    ... done (  0.0 sec)

SHARK setup successfully completed in   2.1 seconds

Maximum memory used throughout the entire STARTUP-calculation: 33.7 MB
-------------------------------------------------------------------------------
                                 ORCA GUESS
                   Start orbitals & Density for SCF / CASSCF
-------------------------------------------------------------------------------

------------
SCF SETTINGS
------------
Hamiltonian:
 Density Functional     Method          .... DFT(GTOs)
 Exchange Functional    Exchange        .... B88
   X-Alpha parameter    XAlpha          ....  0.666667
   Becke's b parameter  XBeta           ....  0.004200
 Correlation Functional Correlation     .... PW91
 LDA part of GGA corr.  LDAOpt          .... PW91-LDA
 Gradients option       PostSCFGGA      .... off
 Hybrid DFT is turned on
   Fraction HF Exchange ScalHFX         ....  0.200000
   Scaling of DF-GGA-X  ScalDFX         ....  0.720000
   Scaling of DF-GGA-C  ScalDFC         ....  0.810000
   Scaling of DF-LDA-C  ScalLDAC        ....  1.000000
   Perturbative correction              ....  0.000000
   NL short-range parameter             ....  4.500000
 RI-approximation to the Coulomb term is turned on
   Number of AuxJ basis functions       .... 621
   RIJ-COSX (HFX calculated with COS-X)).... on


General Settings:
 Integral files         IntName         .... HFE_347pcf2_anti
 Hartree-Fock type      HFTyp           .... RHF
 Total Charge           Charge          ....    0
 Multiplicity           Mult            ....    1
 Number of Electrons    NEL             ....   98
 Basis Dimension        Dim             ....  174
 Nuclear Repulsion      ENuc            ....    840.7964752967 Eh

Convergence Acceleration:
 AO-DIIS                CNVDIIS         .... on
   Start iteration      DIISMaxIt       ....    12
   Startup error        DIISStart       ....  0.200000
   # of expansion vecs  DIISMaxEq       ....     5
   Bias factor          DIISBfac        ....   1.050
   Max. coefficient     DIISMaxC        ....  10.000
 MO-DIIS                CNVKDIIS        .... off
 Trust-Rad. Augm. Hess. CNVTRAH         .... auto
   Auto Start mean grad. ratio tolernc. ....  1.125000
   Auto Start start iteration           ....    50
   Auto Start num. interpolation iter.  ....    10
   Max. Number of Micro iterations      ....    24
   Max. Number of Macro iterations      .... Maxiter - #DIIS iter
   Number of Davidson start vectors     ....     2
   Converg. threshold    (grad. norm)   ....   1.000e-05
   Grad. Scal. Fac. for Micro threshold ....   0.100
   Minimum threshold for Micro iter.    ....   1.000e-02
   NR start threshold (gradient norm)   ....   1.000e-04
   Initial trust radius                 ....   0.400
   Minimum AH scaling param. (alpha)    ....   1.000
   Maximum AH scaling param. (alpha)    .... 1000.000
   Quad. conv. algorithm                .... NR
   White noise on init. David. guess    .... on
   Maximum white noise                  ....   0.010
   Pseudo random numbers                .... off
   Inactive MOs                         .... canonical
   Orbital update algorithm             .... Taylor
   Preconditioner                       .... Diag
   Full preconditioner red. dimension   ....   250
 SOSCF                 CNVSOSCF           .... on
   Start iteration     SOSCFMaxIt         ....   150
   Startup grad/error  SOSCFStart         ....  0.003300
   Hessian update      SOSCFHessUp        .... L-BFGS
   Autom. constraints  SOSCFAutoConstrain .... off
 Level Shifting         CNVShift        .... on
   Level shift para.    LevelShift      ....    0.2500
   Turn off err/grad.   ShiftErr        ....    0.0010
 Zerner damping         CNVZerner       .... off
 Static damping         CNVDamp         .... on
   Fraction old density DampFac         ....    0.7000
   Max. Damping (<1)    DampMax         ....    0.9800
   Min. Damping (>=0)   DampMin         ....    0.0000
   Turn off err/grad.   DampErr         ....    0.1000

SCF Procedure:
 Maximum # iterations   MaxIter         ....   125
 SCF integral mode      SCFMode         .... Direct
   Integral package                     .... SHARK and LIBINT hybrid scheme
 Reset frequency        DirectResetFreq ....    20
 Integral Threshold     Thresh          ....  2.500e-11 Eh
 Primitive CutOff       TCut            ....  2.500e-12 Eh

Convergence Tolerance:
 Convergence Check Mode ConvCheckMode   .... Total+1el-Energy
 Convergence forced     ConvForced      .... 0
 Energy Change          TolE            ....  1.000e-08 Eh
 1-El. energy change                    ....  1.000e-05 Eh
 Orbital Gradient       TolG            ....  1.000e-05
 Orbital Rotation angle TolX            ....  1.000e-05
 DIIS Error             TolErr          ....  5.000e-07

------------------------------
INITIAL GUESS: MODEL POTENTIAL
------------------------------
Loading Hartree-Fock densities                     ... done
Calculating cut-offs                               ... done
Initializing the effective Hamiltonian             ... done
Setting up the integral package (SHARK)            ... done
Starting the Coulomb interaction                   ... done (   0.2 sec)
Making the grid                                    ... done (   0.2 sec)
Mapping shells                                     ... done
Starting the XC term evaluation                    ... done (   0.2 sec)
  promolecular density results
     # of electrons  =     97.994546096
     EX              =   -100.068985353
     EC              =     -3.684973165
     EX+EC           =   -103.753958518
Transforming the Hamiltonian                       ... done (   0.0 sec)
Diagonalizing the Hamiltonian                      ... done (   0.0 sec)
Back transforming the eigenvectors                 ... done (   0.0 sec)
Now organizing SCF variables                       ... done
                      ------------------
                      INITIAL GUESS DONE (   0.6 sec)
                      ------------------
             **** ENERGY FILE WAS UPDATED (HFE_347pcf2_anti.en.tmp) ****
Finished Guess after   0.7 sec
Maximum memory used throughout the entire GUESS-calculation: 12.1 MB

-------------------------------------------------------------------------------------------
                                      ORCA LEAN-SCF
                              memory conserving SCF solver
-------------------------------------------------------------------------------------------

----------------------------------------D-I-I-S--------------------------------------------
Iteration    Energy (Eh)           Delta-E    RMSDP     MaxDP     DIISErr   Damp  Time(sec)
-------------------------------------------------------------------------------------------
               ***  Starting incremental Fock matrix formation  ***
    1    -927.7938624185654817     0.00e+00  2.40e-03  5.39e-02  1.68e-01  0.700   5.1
    2    -927.8839880937567841    -9.01e-02  1.31e-03  2.94e-02  6.88e-02  0.700   2.3
                               ***Turning on AO-DIIS***
    3    -927.9148488513991424    -3.09e-02  3.83e-04  8.40e-03  1.94e-02  0.700   2.3
    4    -927.9351011975783194    -2.03e-02  6.85e-04  1.07e-02  1.02e-02  0.000   2.2
                              *** Initializing SOSCF ***
---------------------------------------S-O-S-C-F--------------------------------------
Iteration    Energy (Eh)           Delta-E    RMSDP     MaxDP     MaxGrad    Time(sec)
--------------------------------------------------------------------------------------
    5    -927.9814016350679822    -4.63e-02  1.26e-04  2.37e-03  2.65e-03     2.2
               *** Restarting incremental Fock matrix formation ***
    6    -927.9815341297677378    -1.32e-04  5.25e-05  9.53e-04  2.52e-04     4.8
    7    -927.9815345485229727    -4.19e-07  2.36e-05  5.87e-04  2.63e-04     3.6
    8    -927.9815382652155904    -3.72e-06  7.68e-06  1.44e-04  5.04e-05     3.6
    9    -927.9815383194448941    -5.42e-08  3.32e-06  7.18e-05  3.13e-05     2.9
   10    -927.9815383929209247    -7.35e-08  1.60e-06  2.68e-05  1.26e-05     2.6
   11    -927.9815383974379301    -4.52e-09  7.64e-07  2.01e-05  9.48e-06     2.7
                 **** Energy Check signals convergence ****

               *****************************************************
               *                     SUCCESS                       *
               *           SCF CONVERGED AFTER  11 CYCLES          *
               *****************************************************

Recomputing exchange energy using gridx3       ... done (    8.120 sec)
Old exchange energy                            :    -20.112043665 Eh
New exchange energy                            :    -20.112097626 Eh
Exchange energy change after final integration :     -0.000053961 Eh
Total energy after final integration           :   -927.981592364 Eh
             **** ENERGY FILE WAS UPDATED (HFE_347pcf2_anti.en.tmp) ****

----------------
TOTAL SCF ENERGY
----------------

Total Energy       :       -927.98159236427341 Eh          -25251.66290 eV

Components:
Nuclear Repulsion  :        840.79647529670603 Eh           22879.23525 eV
Electronic Energy  :      -1768.77801370003112 Eh          -48130.89668 eV
One Electron Energy:      -2960.21889527522308 Eh          -80551.65131 eV
Two Electron Energy:       1191.44088157519195 Eh           32420.75463 eV

Virial components:
Potential Energy   :      -1851.29581867118895 Eh          -50376.32031 eV
Kinetic Energy     :        923.31422630691566 Eh           25124.65741 eV
Virial Ratio       :          2.00505501369347

DFT components:
N(Alpha)           :       48.999996679145 electrons
N(Beta)            :       48.999996679145 electrons
N(Total)           :       97.999993358290 electrons
E(X)               :      -80.056715730318 Eh       
E(C)               :       -4.296951641231 Eh       
E(XC)              :      -84.353667371549 Eh       

---------------
SCF CONVERGENCE
---------------

  Last Energy change         ...    4.5170e-09  Tolerance :   1.0000e-08
  Last MAX-Density change    ...    2.0122e-05  Tolerance :   1.0000e-07
  Last RMS-Density change    ...    7.6373e-07  Tolerance :   5.0000e-09
  Last DIIS Error            ...    2.6470e-03  Tolerance :   5.0000e-07
  Last Orbital Gradient      ...    9.4812e-06  Tolerance :   1.0000e-05
  Last Orbital Rotation      ...    6.5102e-06  Tolerance :   1.0000e-05


----------------
ORBITAL ENERGIES
----------------

  NO   OCC          E(Eh)            E(eV) 
   0   2.0000     -24.731731      -672.9846 
   1   2.0000     -24.728160      -672.8875 
   2   2.0000     -24.725908      -672.8261 
   3   2.0000     -24.717848      -672.6068 
   4   2.0000     -24.717297      -672.5918 
   5   2.0000     -24.712827      -672.4702 
   6   2.0000     -24.709535      -672.3806 
   7   2.0000     -19.202839      -522.5358 
   8   2.0000     -10.431024      -283.8426 
   9   2.0000     -10.416972      -283.4602 
  10   2.0000     -10.358165      -281.8600 
  11   2.0000     -10.262376      -279.2534 
  12   2.0000      -1.318914       -35.8895 
  13   2.0000      -1.309537       -35.6343 
  14   2.0000      -1.276214       -34.7276 
  15   2.0000      -1.239641       -33.7323 
  16   2.0000      -1.233691       -33.5704 
  17   2.0000      -1.228489       -33.4289 
  18   2.0000      -1.217811       -33.1383 
  19   2.0000      -1.095377       -29.8067 
  20   2.0000      -0.828488       -22.5443 
  21   2.0000      -0.772888       -21.0313 
  22   2.0000      -0.686439       -18.6790 
  23   2.0000      -0.670082       -18.2339 
  24   2.0000      -0.616572       -16.7778 
  25   2.0000      -0.611161       -16.6305 
  26   2.0000      -0.605848       -16.4860 
  27   2.0000      -0.598982       -16.2991 
  28   2.0000      -0.584690       -15.9102 
  29   2.0000      -0.562365       -15.3027 
  30   2.0000      -0.559856       -15.2345 
  31   2.0000      -0.553349       -15.0574 
  32   2.0000      -0.506269       -13.7763 
  33   2.0000      -0.481480       -13.1017 
  34   2.0000      -0.471452       -12.8289 
  35   2.0000      -0.468101       -12.7377 
  36   2.0000      -0.464890       -12.6503 
  37   2.0000      -0.449189       -12.2231 
  38   2.0000      -0.441039       -12.0013 
  39   2.0000      -0.433622       -11.7994 
  40   2.0000      -0.431158       -11.7324 
  41   2.0000      -0.421949       -11.4818 
  42   2.0000      -0.420965       -11.4550 
  43   2.0000      -0.418291       -11.3823 
  44   2.0000      -0.411016       -11.1843 
  45   2.0000      -0.410000       -11.1567 
  46   2.0000      -0.378403       -10.2969 
  47   2.0000      -0.364470        -9.9177 
  48   2.0000      -0.333814        -9.0835 
  49   0.0000       0.047993         1.3060 
  50   0.0000       0.075081         2.0431 
  51   0.0000       0.095211         2.5908 
  52   0.0000       0.115560         3.1445 
  53   0.0000       0.120831         3.2880 
  54   0.0000       0.141623         3.8538 
  55   0.0000       0.180001         4.8981 
  56   0.0000       0.198019         5.3884 
  57   0.0000       0.198757         5.4084 
  58   0.0000       0.203398         5.5347 
  59   0.0000       0.223255         6.0751 
*Only the first 10 virtual orbitals were printed.

                    ********************************
                    * MULLIKEN POPULATION ANALYSIS *
                    ********************************

-----------------------
MULLIKEN ATOMIC CHARGES
-----------------------
   0 F :   -0.310450
   1 F :   -0.307373
   2 F :   -0.300191
   3 F :   -0.302799
   4 F :   -0.295691
   5 F :   -0.298071
   6 F :   -0.291829
   7 O :   -0.519842
   8 C :    0.851943
   9 C :   -0.216070
  10 C :    0.456377
  11 C :    0.932326
  12 H :    0.210636
  13 H :    0.213316
  14 H :    0.177719
Sum of atomic charges:   -0.0000000

--------------------------------
MULLIKEN REDUCED ORBITAL CHARGES
--------------------------------
  0 F s       :     3.983975  s :     3.983975
      pz      :     1.827045  p :     5.309017
      px      :     1.910226
      py      :     1.571746
      dz2     :     0.002356  d :     0.017458
      dxz     :     0.000854
      dyz     :     0.005692
      dx2y2   :     0.004961
      dxy     :     0.003595

  1 F s       :     3.985616  s :     3.985616
      pz      :     1.499161  p :     5.304091
      px      :     1.905685
      py      :     1.899244
      dz2     :     0.008421  d :     0.017666
      dxz     :     0.004243
      dyz     :     0.004171
      dx2y2   :     0.000421
      dxy     :     0.000410

  2 F s       :     3.973786  s :     3.973786
      pz      :     1.820906  p :     5.308716
      px      :     1.909432
      py      :     1.578377
      dz2     :     0.002884  d :     0.017690
      dxz     :     0.000836
      dyz     :     0.005637
      dx2y2   :     0.004966
      dxy     :     0.003366

  3 F s       :     3.974388  s :     3.974388
      pz      :     1.900245  p :     5.310679
      px      :     1.565939
      py      :     1.844495
      dz2     :     0.002539  d :     0.017733
      dxz     :     0.003792
      dyz     :     0.001007
      dx2y2   :     0.005126
      dxy     :     0.005268

  4 F s       :     3.975041  s :     3.975041
      pz      :     1.499310  p :     5.303186
      px      :     1.908026
      py      :     1.895850
      dz2     :     0.008290  d :     0.017464
      dxz     :     0.004224
      dyz     :     0.004066
      dx2y2   :     0.000415
      dxy     :     0.000469

  5 F s       :     3.977467  s :     3.977467
      pz      :     1.864886  p :     5.303141
      px      :     1.643746
      py      :     1.794509
      dz2     :     0.002347  d :     0.017463
      dxz     :     0.003504
      dyz     :     0.001916
      dx2y2   :     0.004224
      dxy     :     0.005472

  6 F s       :     3.974924  s :     3.974924
      pz      :     1.823044  p :     5.299356
      px      :     1.912796
      py      :     1.563516
      dz2     :     0.002383  d :     0.017548
      dxz     :     0.000894
      dyz     :     0.005640
      dx2y2   :     0.004925
      dxy     :     0.003706

  7 O s       :     3.895589  s :     3.895589
      pz      :     1.779886  p :     4.595572
      px      :     1.192841
      py      :     1.622845
      dz2     :     0.004129  d :     0.028681
      dxz     :     0.004871
      dyz     :     0.004473
      dx2y2   :     0.005188
      dxy     :     0.010021

  8 C s       :     2.845783  s :     2.845783
      pz      :     0.641319  p :     2.157351
      px      :     0.807223
      py      :     0.708809
      dz2     :     0.036539  d :     0.144922
      dxz     :     0.024683
      dyz     :     0.030785
      dx2y2   :     0.024543
      dxy     :     0.028372

  9 C s       :     3.244841  s :     3.244841
      pz      :     1.095359  p :     2.908680
      px      :     0.833488
      py      :     0.979833
      dz2     :     0.015682  d :     0.062549
      dxz     :     0.009102
      dyz     :     0.009186
      dx2y2   :     0.013608
      dxy     :     0.014971

 10 C s       :     3.052565  s :     3.052565
      pz      :     0.969014  p :     2.378523
      px      :     0.728687
      py      :     0.680822
      dz2     :     0.024610  d :     0.112535
      dxz     :     0.013888
      dyz     :     0.018507
      dx2y2   :     0.026145
      dxy     :     0.029385

 11 C s       :     2.795135  s :     2.795135
      pz      :     0.636048  p :     2.115438
      px      :     0.810555
      py      :     0.668835
      dz2     :     0.039312  d :     0.157101
      dxz     :     0.024976
      dyz     :     0.033139
      dx2y2   :     0.028125
      dxy     :     0.031549

 12 H s       :     0.789364  s :     0.789364

 13 H s       :     0.786684  s :     0.786684

 14 H s       :     0.822281  s :     0.822281



                     *******************************
                     * LOEWDIN POPULATION ANALYSIS *
                     *******************************

----------------------
LOEWDIN ATOMIC CHARGES
----------------------
   0 F :   -0.096831
   1 F :   -0.092273
   2 F :   -0.110195
   3 F :   -0.110588
   4 F :   -0.093960
   5 F :   -0.089919
   6 F :   -0.090263
   7 O :   -0.200702
   8 C :    0.217757
   9 C :   -0.151820
  10 C :    0.124323
  11 C :    0.252262
  12 H :    0.151718
  13 H :    0.153222
  14 H :    0.137270

-------------------------------
LOEWDIN REDUCED ORBITAL CHARGES
-------------------------------
  0 F s       :     3.742211  s :     3.742211
      pz      :     1.825409  p :     5.319326
      px      :     1.899155
      py      :     1.594762
      dz2     :     0.004641  d :     0.035294
      dxz     :     0.001615
      dyz     :     0.011149
      dx2y2   :     0.010874
      dxy     :     0.007016

  1 F s       :     3.741573  s :     3.741573
      pz      :     1.528290  p :     5.315149
      px      :     1.894979
      py      :     1.891879
      dz2     :     0.018142  d :     0.035551
      dxz     :     0.008238
      dyz     :     0.007691
      dx2y2   :     0.000666
      dxy     :     0.000814

  2 F s       :     3.745114  s :     3.745114
      pz      :     1.835574  p :     5.329743
      px      :     1.896067
      py      :     1.598101
      dz2     :     0.005891  d :     0.035338
      dxz     :     0.001482
      dyz     :     0.012129
      dx2y2   :     0.009824
      dxy     :     0.006012

  3 F s       :     3.744297  s :     3.744297
      pz      :     1.903854  p :     5.330979
      px      :     1.586847
      py      :     1.840278
      dz2     :     0.005173  d :     0.035312
      dxz     :     0.007789
      dyz     :     0.002086
      dx2y2   :     0.009997
      dxy     :     0.010266

  4 F s       :     3.742779  s :     3.742779
      pz      :     1.529299  p :     5.316641
      px      :     1.897504
      py      :     1.889838
      dz2     :     0.017989  d :     0.034540
      dxz     :     0.007752
      dyz     :     0.007425
      dx2y2   :     0.000562
      dxy     :     0.000810

  5 F s       :     3.741081  s :     3.741081
      pz      :     1.860945  p :     5.314498
      px      :     1.659006
      py      :     1.794548
      dz2     :     0.004643  d :     0.034341
      dxz     :     0.006439
      dyz     :     0.003669
      dx2y2   :     0.008024
      dxy     :     0.011565

  6 F s       :     3.742178  s :     3.742178
      pz      :     1.822211  p :     5.313426
      px      :     1.901665
      py      :     1.589550
      dz2     :     0.004556  d :     0.034658
      dxz     :     0.001490
      dyz     :     0.011349
      dx2y2   :     0.010570
      dxy     :     0.006693

  7 O s       :     3.496175  s :     3.496175
      pz      :     1.775670  p :     4.642449
      px      :     1.224264
      py      :     1.642515
      dz2     :     0.008322  d :     0.062079
      dxz     :     0.011171
      dyz     :     0.006283
      dx2y2   :     0.014258
      dxy     :     0.022043

  8 C s       :     2.843679  s :     2.843679
      pz      :     0.805711  p :     2.599543
      px      :     0.936031
      py      :     0.857801
      dz2     :     0.090136  d :     0.339021
      dxz     :     0.052661
      dyz     :     0.072352
      dx2y2   :     0.055802
      dxy     :     0.068069

  9 C s       :     2.947238  s :     2.947238
      pz      :     1.118149  p :     3.070619
      px      :     0.909110
      py      :     1.043360
      dz2     :     0.031878  d :     0.133963
      dxz     :     0.019110
      dyz     :     0.018109
      dx2y2   :     0.029674
      dxy     :     0.035193

 10 C s       :     2.906582  s :     2.906582
      pz      :     1.044572  p :     2.703207
      px      :     0.847587
      py      :     0.811049
      dz2     :     0.057404  d :     0.265889
      dxz     :     0.030068
      dyz     :     0.044904
      dx2y2   :     0.061371
      dxy     :     0.072141

 11 C s       :     2.835260  s :     2.835260
      pz      :     0.789660  p :     2.540963
      px      :     0.927794
      py      :     0.823510
      dz2     :     0.097884  d :     0.371515
      dxz     :     0.053364
      dyz     :     0.077088
      dx2y2   :     0.065767
      dxy     :     0.077413

 12 H s       :     0.848282  s :     0.848282

 13 H s       :     0.846778  s :     0.846778

 14 H s       :     0.862730  s :     0.862730



                      *****************************
                      * MAYER POPULATION ANALYSIS *
                      *****************************

  NA   - Mulliken gross atomic population
  ZA   - Total nuclear charge
  QA   - Mulliken gross atomic charge
  VA   - Mayer's total valence
  BVA  - Mayer's bonded valence
  FA   - Mayer's free valence

  ATOM       NA         ZA         QA         VA         BVA        FA
  0 F      9.3104     9.0000    -0.3104     1.0350     1.0350     0.0000
  1 F      9.3074     9.0000    -0.3074     1.0407     1.0407    -0.0000
  2 F      9.3002     9.0000    -0.3002     1.0394     1.0394     0.0000
  3 F      9.3028     9.0000    -0.3028     1.0385     1.0385     0.0000
  4 F      9.2957     9.0000    -0.2957     1.0568     1.0568     0.0000
  5 F      9.2981     9.0000    -0.2981     1.0585     1.0585    -0.0000
  6 F      9.2918     9.0000    -0.2918     1.0621     1.0621     0.0000
  7 O      8.5198     8.0000    -0.5198     1.9027     1.9027     0.0000
  8 C      5.1481     6.0000     0.8519     3.8093     3.8093    -0.0000
  9 C      6.2161     6.0000    -0.2161     3.7642     3.7642     0.0000
 10 C      5.5436     6.0000     0.4564     3.7913     3.7913    -0.0000
 11 C      5.0677     6.0000     0.9323     3.9305     3.9305     0.0000
 12 H      0.7894     1.0000     0.2106     0.9183     0.9183    -0.0000
 13 H      0.7867     1.0000     0.2133     0.9175     0.9175    -0.0000
 14 H      0.8223     1.0000     0.1777     0.9184     0.9184    -0.0000

  Mayer bond orders larger than 0.100000
B(  0-F ,  8-C ) :   0.9266 B(  1-F ,  8-C ) :   0.9315 B(  2-F , 10-C ) :   0.9660 
B(  3-F , 10-C ) :   0.9538 B(  4-F , 11-C ) :   0.9846 B(  5-F , 11-C ) :   0.9679 
B(  6-F , 11-C ) :   0.9903 B(  7-O ,  8-C ) :   0.9554 B(  7-O ,  9-C ) :   0.8752 
B(  8-C , 10-C ) :   0.9020 B(  9-C , 11-C ) :   0.9700 B(  9-C , 12-H ) :   0.8962 
B(  9-C , 13-H ) :   0.8954 B( 10-C , 14-H ) :   0.9009 

-------
TIMINGS
-------

Total SCF time: 0 days 0 hours 0 min 44 sec 

Total time                  ....      44.889 sec
Sum of individual times     ....      42.527 sec  ( 94.7%)

SCF preparation             ....       0.102 sec  (  0.2%)
Fock matrix formation       ....      42.296 sec  ( 94.2%)
  Startup                   ....       0.005 sec  (  0.0% of F)
  Split-RI-J                ....       3.827 sec  (  9.0% of F)
  Chain of spheres X        ....      34.498 sec  ( 81.6% of F)
  XC integration            ....       6.162 sec  ( 14.6% of F)
    XC Preparation          ....       0.000 sec  (  0.0% of XC)
    Basis function eval.    ....       2.385 sec  ( 38.7% of XC)
    Density eval.           ....       1.480 sec  ( 24.0% of XC)
    XC-Functional eval.     ....       0.570 sec  (  9.3% of XC)
    XC-Potential eval.      ....       1.435 sec  ( 23.3% of XC)
Diagonalization             ....       0.000 sec  (  0.0%)
Density matrix formation    ....       0.015 sec  (  0.0%)
Total Energy calculation    ....       0.003 sec  (  0.0%)
Population analysis         ....       0.010 sec  (  0.0%)
Orbital Transformation      ....       0.016 sec  (  0.0%)
Orbital Orthonormalization  ....       0.000 sec  (  0.0%)
DIIS solution               ....       0.046 sec  (  0.1%)
SOSCF solution              ....       0.038 sec  (  0.1%)
Finished LeanSCF after  44.9 sec

Maximum memory used throughout the entire LEANSCF-calculation: 21.0 MB

------------------------------------------------------------------------------
                         ORCA PROPERTY INTEGRAL CALCULATIONS
------------------------------------------------------------------------------

GBWName                                   ... HFE_347pcf2_anti.gbw
Number of atoms                           ...     15
Number of basis functions                 ...    174
Max core memory                           ...   4096 MB

Dipole integrals                          ... YES
Quadrupole integrals                      ...  NO
Linear momentum integrals                 ...  NO
Angular momentum integrals                ...  NO
Higher moments length integrals           ...  NO
Higher moments velocity integrals         ...  NO
Kinetic energy integrals                  ...  NO
GIAO right hand sides                     ...  NO
GIAO dipole derivative integrals          ...  NO
SOC integrals                             ...  NO
EPR diamagnetic integrals (GIAO)          ...  NO
EPR gauge integrals                       ...  NO
Field gradient integrals                  ...  NO (   0 nuclei)
Spin-dipole/Fermi contact integrals       ...  NO (   0 nuclei)
Contact density integrals                 ...  NO (   0 nuclei)
Nucleus-orbit integrals                   ...  NO (   0 nuclei)
Geometric perturbations                   ...  NO (  15 nuclei)

Choice of electric origin   ... Center of mass
Position of electric origin ... (  0.0003,  0.0097, -0.0142) 
Choice of magnetic origin   ... GIAO
Position of magnetic origin ... (  0.0000,  0.0000,  0.0000) 

Calculating integrals                     ... Electric Dipole (Length)     done (  0.0 sec)

Property integrals calculated in   0.0 sec

Maximum memory used throughout the entire PROPINT-calculation: 12.4 MB

-------------------------   --------------------
FINAL SINGLE POINT ENERGY      -927.981592364273
-------------------------   --------------------

------------------------------------------------------------------------------
                         ORCA SCF GRADIENT CALCULATION
------------------------------------------------------------------------------

Nuc. rep. gradient        (SHARK) ... done (  0.0 sec)
HCore & Overlap gradient  (SHARK) ... done (  0.2 sec)
Split-RIJ-J gradient      (SHARK) ... done (  1.4 sec)
done ( 23.6 sec)
XC gradient                       ... done (  4.4 sec)

------------------
CARTESIAN GRADIENT
------------------

   1   F   :   -0.004761397   -0.000752656    0.002320337
   2   F   :   -0.002248758    0.002555742   -0.004574479
   3   F   :    0.005712315    0.002798600   -0.001229449
   4   F   :    0.005077017    0.005807803   -0.001628974
   5   F   :    0.000301658    0.000918668    0.007042044
   6   F   :   -0.009250412   -0.001460679   -0.000443426
   7   F   :    0.000573638    0.007787406   -0.002852876
   8   O   :   -0.032482357    0.007696778    0.002411130
   9   C   :    0.046412488   -0.002883156    0.005527626
  10   C   :   -0.007022371    0.009812194    0.005837208
  11   C   :   -0.017539765   -0.020242815   -0.003553049
  12   C   :    0.005777886   -0.013553138   -0.008400634
  13   H   :    0.003745266   -0.000484941    0.000188498
  14   H   :    0.003156170   -0.000300268   -0.000215898
  15   H   :    0.002548621    0.002300464   -0.000428057

Difference to translation invariance:
           :    0.0000000000    0.0000000001   -0.0000000001

Difference to rotation invariance:
           :    0.0007913793   -0.0000717390   -0.0000848749

Norm of the Cartesian gradient     ...    0.0701403255
RMS gradient                       ...    0.0104559024
MAX gradient                       ...    0.0464124876

-------
TIMINGS
-------

Total SCF gradient time     ....       29.604 sec

Densities                   ....       0.000 sec  (  0.0%)
One electron gradient       ....       0.196 sec  (  0.7%)
RI-J Coulomb gradient       ....       1.419 sec  (  4.8%)
COSX gradient               ....      23.629 sec  ( 79.8%)
XC gradient                 ....       4.360 sec  ( 14.7%)

Maximum memory used throughout the entire SCFGRAD-calculation: 24.8 MB
------------------------------------------------------------------------------
                         ORCA GEOMETRY RELAXATION STEP
------------------------------------------------------------------------------

Reading the OPT-File                    .... done
Getting information on internals        .... done
Copying old internal coords+grads       .... done
Making the new internal coordinates     .... (2022 redundants) done
Validating the new internal coordinates .... (2022 redundants) done
Calculating the B-matrix                .... done
Calculating the G,G- and P matrices     .... done
Transforming gradient to internals      .... done
Projecting the internal gradient        .... done
Number of atoms                         ....  15
Number of internal coordinates          ....  57
Current Energy                          ....  -927.981592364 Eh
Current gradient norm                   ....     0.070140325 Eh/bohr
Maximum allowed component of the step   ....  0.300
Current trust radius                    ....  0.300
Evaluating the initial hessian          ....  (Almloef) done
Projecting the Hessian                  .... done
Forming the augmented Hessian           .... done
Diagonalizing the augmented Hessian     .... done
Last element of RFO vector              ....  0.992359291
Lowest eigenvalues of augmented Hessian:
 -0.005898553  0.013129160  0.013281728  0.019616371  0.019753350
Length of the computed step             ....  0.124331656
The final length of the internal step   ....  0.124331656
Converting the step to Cartesian space:
 Initial RMS(Int)=    0.0164681301
Transforming coordinates:
 Iter   0:  RMS(Cart)=    0.0523095984 RMS(Int)=    0.8321641225
done
Storing new coordinates                 .... done

                                .--------------------.
          ----------------------|Geometry convergence|-------------------------
          Item                value                   Tolerance       Converged
          ---------------------------------------------------------------------
          RMS gradient        0.0067310790            0.0001000000      NO
          MAX gradient        0.0363735064            0.0003000000      NO
          RMS step            0.0164681301            0.0020000000      NO
          MAX step            0.0721621845            0.0040000000      NO
          -------------------------------------------------------------------------
          ........................................................
          Max(Bonds)      0.0382      Max(Angles)    1.81
          Max(Dihed)        1.53      Max(Improp)    0.00
          ---------------------------------------------------------------------

The optimization has not yet converged - more geometry cycles are needed


    ---------------------------------------------------------------------------
                         Redundant Internal Coordinates
                            (Angstroem and degrees)

        Definition                    Value    dE/dq     Step     New-Value
    ----------------------------------------------------------------------------
     1. B(C   8,F   1)                1.3540  0.003875 -0.0034    1.3506   
     2. B(C   8,O   7)                1.4217  0.036374 -0.0382    1.3835   
     3. B(C   8,F   0)                1.3549  0.001517 -0.0013    1.3536   
     4. B(C   9,O   7)                1.4207  0.000145 -0.0002    1.4206   
     5. B(C  10,F   3)                1.3556  0.002448 -0.0022    1.3534   
     6. B(C  10,C   8)                1.5052 -0.010945  0.0140    1.5192   
     7. B(C  10,F   2)                1.3560  0.002929 -0.0026    1.3533   
     8. B(C  11,F   6)                1.3498  0.008219 -0.0071    1.3426   
     9. B(C  11,F   5)                1.3498  0.008151 -0.0071    1.3427   
    10. B(C  11,C   9)                1.5067 -0.001594  0.0020    1.5087   
    11. B(C  11,F   4)                1.3510  0.007020 -0.0061    1.3449   
    12. B(H  12,C   9)                1.0953  0.000558 -0.0008    1.0944   
    13. B(H  13,C   9)                1.0952  0.000539 -0.0008    1.0944   
    14. B(H  14,C  10)                1.0933 -0.000259  0.0004    1.0937   
    15. A(C   8,O   7,C   9)          112.56 -0.005559    0.79    113.35   
    16. A(F   1,C   8,C  10)          110.06 -0.002466    0.28    110.33   
    17. A(F   1,C   8,O   7)          109.61 -0.006867    1.27    110.88   
    18. A(O   7,C   8,C  10)          110.34  0.012705   -1.81    108.53   
    19. A(F   0,C   8,C  10)          109.68  0.001347   -0.51    109.17   
    20. A(F   0,C   8,F   1)          107.97  0.003035   -0.45    107.52   
    21. A(F   0,C   8,O   7)          109.14 -0.008061    1.27    110.41   
    22. A(H  12,C   9,H  13)          108.85 -0.000357    0.43    109.28   
    23. A(C  11,C   9,H  13)          109.52  0.000307   -0.31    109.21   
    24. A(O   7,C   9,H  13)          109.94 -0.004811    0.89    110.83   
    25. A(C  11,C   9,H  12)          109.60  0.001120   -0.48    109.12   
    26. A(O   7,C   9,H  12)          109.84 -0.005367    0.99    110.84   
    27. A(O   7,C   9,C  11)          109.08  0.009082   -1.52    107.55   
    28. A(F   3,C  10,H  14)          109.11 -0.003448    0.31    109.42   
    29. A(F   2,C  10,H  14)          108.81 -0.004681    0.52    109.33   
    30. A(F   2,C  10,F   3)          106.81 -0.009381    1.79    108.60   
    31. A(F   3,C  10,C   8)          109.51  0.009099   -1.16    108.35   
    32. A(C   8,C  10,H  14)          112.73  0.002798   -0.75    111.98   
    33. A(F   2,C  10,C   8)          109.69  0.004809   -0.55    109.14   
    34. A(F   4,C  11,C   9)          110.61 -0.005178    0.72    111.33   
    35. A(F   5,C  11,F   6)          108.10  0.000942   -0.08    108.02   
    36. A(F   4,C  11,F   6)          107.71 -0.002558    0.39    108.11   
    37. A(F   4,C  11,F   5)          107.74 -0.002450    0.24    107.98   
    38. A(F   6,C  11,C   9)          111.26 -0.001967    0.34    111.60   
    39. A(F   5,C  11,C   9)          111.27  0.010908   -1.57    109.69   
    40. D(F   1,C   8,O   7,C   9)     58.64 -0.001760   -0.00     58.64   
    41. D(F   0,C   8,O   7,C   9)    -59.41  0.003313   -0.95    -60.36   
    42. D(C  10,C   8,O   7,C   9)    180.00 -0.001133    0.01    180.00   
    43. D(H  13,C   9,O   7,C   8)    -59.24  0.003397   -1.08    -60.31   
    44. D(H  12,C   9,O   7,C   8)     60.52 -0.003390    0.63     61.15   
    45. D(C  11,C   9,O   7,C   8)   -179.34  0.000326   -0.30   -179.64   
    46. D(F   2,C  10,C   8,F   0)    178.28 -0.000023   -0.36    177.92   
    47. D(F   3,C  10,C   8,O   7)   -178.37  0.002135   -1.43   -179.80   
    48. D(F   3,C  10,C   8,F   1)    -57.28  0.000206   -0.83    -58.12   
    49. D(F   3,C  10,C   8,F   0)     61.36  0.003252   -1.53     59.83   
    50. D(F   2,C  10,C   8,O   7)    -61.46 -0.001140   -0.26    -61.71   
    51. D(F   2,C  10,C   8,F   1)     59.63 -0.003069    0.34     59.97   
    52. D(F   4,C  11,C   9,H  13)   -179.92  0.000491   -0.07   -179.98   
    53. D(F   4,C  11,C   9,H  12)     60.73  0.000060   -0.11     60.62   
    54. D(F   4,C  11,C   9,O   7)    -59.56  0.000365   -0.10    -59.65   
    55. D(F   5,C  11,C   9,H  13)     60.37 -0.000144    0.19     60.56   
    56. D(F   5,C  11,C   9,H  12)    -58.98 -0.000574    0.14    -58.84   
    57. D(F   5,C  11,C   9,O   7)   -179.27 -0.000269    0.16   -179.11   
    ----------------------------------------------------------------------------

Geometry step timings:
Preparation and reading OPT file:      0.000 s ( 1.083 %)
Internal coordinates            :      0.000 s ( 0.669 %)
B/P matrices and projection     :      0.001 s (29.350 %)
Hessian update/contruction      :      0.000 s (10.644 %)
Making the step                 :      0.001 s (29.127 %)
Converting the step to Cartesian:      0.000 s ( 3.505 %)
Storing new data                :      0.000 s ( 2.486 %)
Checking convergence            :      0.000 s ( 1.179 %)
Final printing                  :      0.001 s (21.797 %)
Total time                      :      0.003 s

Time for energy+gradient        :     77.526 s
Time for complete geometry iter :     77.573 s

         *************************************************************
         *                GEOMETRY OPTIMIZATION CYCLE   2            *
         *************************************************************
---------------------------------
CARTESIAN COORDINATES (ANGSTROEM)
---------------------------------
  F      1.309736   -1.635237    0.548231
  F      1.403993   -0.625288   -1.382340
  F      2.233115    1.680870   -0.146291
  F      3.501846   -0.070282    0.247682
  F     -2.502029    0.300104    1.358963
  F     -3.434414   -0.606166   -0.383411
  F     -2.415843    1.303937   -0.569270
  O     -0.016665    0.142775    0.186611
  C      1.218995   -0.428909   -0.058995
  C     -1.103115   -0.637559   -0.291687
  C      2.294801    0.490159    0.493985
  C     -2.375108    0.105353    0.034335
  H     -1.124196   -1.616352    0.197534
  H     -1.034861   -0.776683   -1.375098
  H      2.181644    0.651579    1.569750

----------------------------
CARTESIAN COORDINATES (A.U.)
----------------------------
  NO LB      ZA    FRAG     MASS         X           Y           Z
   0 F     9.0000    0    18.998    2.475043   -3.090149    1.036007
   1 F     9.0000    0    18.998    2.653162   -1.181623   -2.612245
   2 F     9.0000    0    18.998    4.219975    3.176384   -0.276449
   3 F     9.0000    0    18.998    6.617529   -0.132813    0.468051
   4 F     9.0000    0    18.998   -4.728150    0.567114    2.568067
   5 F     9.0000    0    18.998   -6.490101   -1.145487   -0.724542
   6 F     9.0000    0    18.998   -4.565281    2.464083   -1.075763
   7 O     8.0000    0    15.999   -0.031492    0.269805    0.352644
   8 C     6.0000    0    12.011    2.303566   -0.810521   -0.111484
   9 C     6.0000    0    12.011   -2.084584   -1.204811   -0.551208
  10 C     6.0000    0    12.011    4.336546    0.926267    0.933497
  11 C     6.0000    0    12.011   -4.488304    0.199087    0.064883
  12 H     1.0000    0     1.008   -2.124422   -3.054463    0.373286
  13 H     1.0000    0     1.008   -1.955603   -1.467719   -2.598558
  14 H     1.0000    0     1.008    4.122710    1.231305    2.966399

--------------------------------
INTERNAL COORDINATES (ANGSTROEM)
--------------------------------
 F      0   0   0     0.000000000000     0.00000000     0.00000000
 F      1   0   0     2.180822448162     0.00000000     0.00000000
 F      2   1   0     2.744745008059    90.20071766     0.00000000
 F      3   2   1     2.198050052767    65.52452969    56.58429757
 F      1   2   3     4.351136111963    89.81804344    78.87292818
 F      5   1   2     2.174058800751    92.34765313    60.12039479
 F      6   5   1     2.172676296538    60.06762975   271.00313285
 O      1   2   3     2.247539635746    61.09986241    61.90673697
 C      2   1   3     1.350567236371    36.29412464   332.46366133
 C      8   1   2     1.420584996718    94.06959273    91.55405128
 C      3   2   1     1.353347726332    59.17527434    16.70281496
 C      7   6   5     1.342609971920    35.99450375    37.34795173
 H     10   8   1     1.094449094135   110.82327897    31.69492431
 H     10   8   1     1.094437612400   110.81982022   270.20387204
 H     11   3   2     1.093678169620   109.31636611   209.51774798

---------------------------
INTERNAL COORDINATES (A.U.)
---------------------------
 F      0   0   0     0.000000000000     0.00000000     0.00000000
 F      1   0   0     4.121157173734     0.00000000     0.00000000
 F      2   1   0     5.186816372680    90.20071766     0.00000000
 F      3   2   1     4.153712628381    65.52452969    56.58429757
 F      1   2   3     8.222455623025    89.81804344    78.87292818
 F      5   1   2     4.108375732461    92.34765313    60.12039479
 F      6   5   1     4.105763178120    60.06762975   271.00313285
 O      1   2   3     4.247234386692    61.09986241    61.90673697
 C      2   1   3     2.552202202189    36.29412464   332.46366133
 C      8   1   2     2.684516593755    94.06959273    91.55405128
 C      3   2   1     2.557456566732    59.17527434    16.70281496
 C      7   6   5     2.537165151600    35.99450375    37.34795173
 H     10   8   1     2.068209055434   110.82327897    31.69492431
 H     10   8   1     2.068187358099   110.81982022   270.20387204
 H     11   3   2     2.066752219230   109.31636611   209.51774798

------------------------------------------------------------------------------
                   ___                                                        
                  /   \      - P O W E R E D   B Y -                         
                 /     \                                                     
                 |  |  |   _    _      __       _____    __    __             
                 |  |  |  | |  | |    /  \     |  _  \  |  |  /  |          
                  \  \/   | |  | |   /    \    | | | |  |  | /  /          
                 / \  \   | |__| |  /  /\  \   | |_| |  |  |/  /          
                |  |  |   |  __  | /  /__\  \  |    /   |      \           
                |  |  |   | |  | | |   __   |  |    \   |  |\   \          
                \     /   | |  | | |  |  |  |  | |\  \  |  | \   \       
                 \___/    |_|  |_| |__|  |__|  |_| \__\ |__|  \__/        
                                                                              
                      - O R C A' S   B I G   F R I E N D -                    
                                      &                                       
[...]
  (1) The electronic state is orbitally nondegenerate
  (2) There are no thermally accessible electronically excited states
  (3) Hindered rotations indicated by low frequency modes are not
      treated as such but are treated as vibrations and this may
      cause some error
  (4) All equations used are the standard statistical mechanics
      equations for an ideal gas
  (5) All vibrations are strictly harmonic

freq.      11.11  E(vib)   ...       0.62 
freq.      39.49  E(vib)   ...       0.58 
freq.      58.57  E(vib)   ...       0.56 
freq.      80.22  E(vib)   ...       0.53 
freq.     135.42  E(vib)   ...       0.46 
freq.     191.02  E(vib)   ...       0.40 
freq.     224.90  E(vib)   ...       0.37 
freq.     241.39  E(vib)   ...       0.35 
freq.     308.75  E(vib)   ...       0.29 
freq.     356.01  E(vib)   ...       0.26 
freq.     393.40  E(vib)   ...       0.23 
freq.     436.55  E(vib)   ...       0.20 
freq.     517.95  E(vib)   ...       0.16 
freq.     530.32  E(vib)   ...       0.15 
freq.     544.42  E(vib)   ...       0.15 
freq.     585.55  E(vib)   ...       0.13 
freq.     594.29  E(vib)   ...       0.13 
freq.     653.92  E(vib)   ...       0.10 
freq.     780.03  E(vib)   ...       0.07 
freq.     864.46  E(vib)   ...       0.05 
freq.     891.01  E(vib)   ...       0.05 
freq.     992.57  E(vib)   ...       0.03 
freq.    1081.43  E(vib)   ...       0.02 
freq.    1161.36  E(vib)   ...       0.02 
freq.    1171.90  E(vib)   ...       0.02 
freq.    1187.84  E(vib)   ...       0.02 
freq.    1212.68  E(vib)   ...       0.01 
freq.    1231.03  E(vib)   ...       0.01 
freq.    1255.84  E(vib)   ...       0.01 
freq.    1320.37  E(vib)   ...       0.01 
freq.    1333.04  E(vib)   ...       0.01 
freq.    1348.66  E(vib)   ...       0.01 
freq.    1410.89  E(vib)   ...       0.01 
freq.    1451.29  E(vib)   ...       0.01 
freq.    1477.08  E(vib)   ...       0.01 
freq.    1520.77  E(vib)   ...       0.00 
freq.    3103.66  E(vib)   ...       0.00 
freq.    3129.84  E(vib)   ...       0.00 
freq.    3166.52  E(vib)   ...       0.00 

------------
INNER ENERGY
------------

The inner energy is: U= E(el) + E(ZPE) + E(vib) + E(rot) + E(trans)
    E(el)   - is the total energy from the electronic structure calculation
              = E(kin-el) + E(nuc-el) + E(el-el) + E(nuc-nuc)
    E(ZPE)  - the the zero temperature vibrational energy from the frequency calculation
    E(vib)  - the the finite temperature correction to E(ZPE) due to population
              of excited vibrational states
    E(rot)  - is the rotational thermal energy
    E(trans)- is the translational thermal energy

Summary of contributions to the inner energy U:
Electronic energy                ...   -927.98672171 Eh
Zero point energy                ...      0.08428210 Eh      52.89 kcal/mol
Thermal vibrational correction   ...      0.00963510 Eh       6.05 kcal/mol
Thermal rotational correction    ...      0.00152006 Eh       0.95 kcal/mol
Thermal translational correction ...      0.00152006 Eh       0.95 kcal/mol
-----------------------------------------------------------------------
Total thermal energy                   -927.88976439 Eh


Summary of corrections to the electronic energy:
(perhaps to be used in another calculation)
Total thermal correction                  0.01267522 Eh       7.95 kcal/mol
Non-thermal (ZPE) correction              0.08428210 Eh      52.89 kcal/mol
-----------------------------------------------------------------------
Total correction                          0.09695732 Eh      60.84 kcal/mol


--------
ENTHALPY
--------

The enthalpy is H = U + kB*T
                kB is Boltzmann's constant
Total thermal energy              ...   -927.88976439 Eh 
Thermal Enthalpy correction       ...      0.00101341 Eh       0.64 kcal/mol
-----------------------------------------------------------------------
Total Enthalpy                    ...   -927.88875098 Eh


Note: Only C1 symmetry has been detected, increase convergence thresholds 
      if your molecule has a higher symmetry. Symmetry factor of 1.0 is   
      used for the rotational entropy correction. 
 

Note: Rotational entropy computed according to Herzberg 
Infrared and Raman Spectra, Chapter V,1, Van Nostrand Reinhold, 1945 
Point Group:  C1, Symmetry Number:   1  
Rotational constants in cm-1:     0.063843     0.015049     0.014262 

Vibrational entropy computed according to the QRRHO of S. Grimme
Chem.Eur.J. 2012 18 9955 using a reference frequency of 100.0 cm-1


-------
ENTROPY
-------

The entropy contributions are T*S = T*(S(el)+S(vib)+S(rot)+S(trans))
     S(el)   - electronic entropy
     S(vib)  - vibrational entropy
     S(rot)  - rotational entropy
     S(trans)- translational entropy
The entropies will be listed as multiplied by the temperature to get
units of energy

Electronic entropy                ...      0.00000000 Eh      0.00 kcal/mol
Vibrational entropy               ...      0.01782392 Eh     11.18 kcal/mol
Rotational entropy                ...      0.01598920 Eh     10.03 kcal/mol
Translational entropy             ...      0.02148743 Eh     13.48 kcal/mol
-----------------------------------------------------------------------
Final entropy term                ...      0.05530055 Eh     34.70 kcal/mol

In case the symmetry of your molecule has not been determined correctly
or in case you have a reason to use a different symmetry number we print 
out the resulting rotational entropy values for sn=1,12:

 non-linear molecules -----------------------------------
|  sn= 1 | S(rot)=       0.01598920 Eh     10.03 kcal/mol|
|  sn= 2 | S(rot)=       0.01528678 Eh      9.59 kcal/mol|
|  sn= 3 | S(rot)=       0.01487589 Eh      9.33 kcal/mol|
|  sn= 4 | S(rot)=       0.01458436 Eh      9.15 kcal/mol|
|  sn= 5 | S(rot)=       0.01435823 Eh      9.01 kcal/mol|
|  sn= 6 | S(rot)=       0.01417347 Eh      8.89 kcal/mol|
|  sn= 7 | S(rot)=       0.01401726 Eh      8.80 kcal/mol|
|  sn= 8 | S(rot)=       0.01388194 Eh      8.71 kcal/mol|
|  sn= 9 | S(rot)=       0.01376259 Eh      8.64 kcal/mol|
|  sn=10 | S(rot)=       0.01365582 Eh      8.57 kcal/mol|
|  sn=11 | S(rot)=       0.01355923 Eh      8.51 kcal/mol|
|  sn=12 | S(rot)=       0.01347106 Eh      8.45 kcal/mol|
 linear molecules ---------------------------------------
|  Dinfh | S(rot)=       0.01009482 Eh      6.33 kcal/mol|
|  Cinfv | S(rot)=       0.01079724 Eh      6.78 kcal/mol|
 --------------------------------------------------------


-------------------
GIBBS FREE ENERGY
-------------------

The Gibbs free energy is G = H - T*S

Total enthalpy                    ...   -927.88875098 Eh 
Total entropy correction          ...     -0.05530055 Eh    -34.70 kcal/mol
-----------------------------------------------------------------------
Final Gibbs free energy         ...   -927.94405153 Eh

For completeness - the Gibbs free energy minus the electronic energy
G-E(el)                           ...      0.04267018 Eh     26.78 kcal/mol


The first frequency considered to be a vibration is 6
The total number of vibrations considered is 39


--------------------------
THERMOCHEMISTRY AT 340.00K
--------------------------

Temperature         ...   340.00 K
Pressure            ...     1.00 atm
Total Mass          ...   200.05 AMU
Quasi RRHO          ...     True
Cut-Off Frequency   ...     1.00 cm^-1

Throughout the following assumptions are being made:
  (1) The electronic state is orbitally nondegenerate
  (2) There are no thermally accessible electronically excited states
  (3) Hindered rotations indicated by low frequency modes are not
      treated as such but are treated as vibrations and this may
      cause some error
  (4) All equations used are the standard statistical mechanics
      equations for an ideal gas
  (5) All vibrations are strictly harmonic

freq.      11.11  E(vib)   ...       0.66 
freq.      39.49  E(vib)   ...       0.62 
freq.      58.57  E(vib)   ...       0.60 
freq.      80.22  E(vib)   ...       0.57 
freq.     135.42  E(vib)   ...       0.50 
freq.     191.02  E(vib)   ...       0.44 
freq.     224.90  E(vib)   ...       0.40 
freq.     241.39  E(vib)   ...       0.39 
freq.     308.75  E(vib)   ...       0.33 
freq.     356.01  E(vib)   ...       0.29 
freq.     393.40  E(vib)   ...       0.26 
freq.     436.55  E(vib)   ...       0.23 
freq.     517.95  E(vib)   ...       0.19 
freq.     530.32  E(vib)   ...       0.18 
freq.     544.42  E(vib)   ...       0.17 
freq.     585.55  E(vib)   ...       0.15 
freq.     594.29  E(vib)   ...       0.15 
freq.     653.92  E(vib)   ...       0.13 
freq.     780.03  E(vib)   ...       0.09 
freq.     864.46  E(vib)   ...       0.07 
freq.     891.01  E(vib)   ...       0.06 
freq.     992.57  E(vib)   ...       0.04 
freq.    1081.43  E(vib)   ...       0.03 
freq.    1161.36  E(vib)   ...       0.02 
freq.    1171.90  E(vib)   ...       0.02 
freq.    1187.84  E(vib)   ...       0.02 
freq.    1212.68  E(vib)   ...       0.02 
freq.    1231.03  E(vib)   ...       0.02 
freq.    1255.84  E(vib)   ...       0.02 
freq.    1320.37  E(vib)   ...       0.01 
freq.    1333.04  E(vib)   ...       0.01 
freq.    1348.66  E(vib)   ...       0.01 
freq.    1410.89  E(vib)   ...       0.01 
freq.    1451.29  E(vib)   ...       0.01 
freq.    1477.08  E(vib)   ...       0.01 
freq.    1520.77  E(vib)   ...       0.01 
freq.    3103.66  E(vib)   ...       0.00 
freq.    3129.84  E(vib)   ...       0.00 
freq.    3166.52  E(vib)   ...       0.00 

------------
INNER ENERGY
------------

The inner energy is: U= E(el) + E(ZPE) + E(vib) + E(rot) + E(trans)
    E(el)   - is the total energy from the electronic structure calculation
              = E(kin-el) + E(nuc-el) + E(el-el) + E(nuc-nuc)
    E(ZPE)  - the the zero temperature vibrational energy from the frequency calculation
    E(vib)  - the the finite temperature correction to E(ZPE) due to population
              of excited vibrational states
    E(rot)  - is the rotational thermal energy
    E(trans)- is the translational thermal energy

Summary of contributions to the inner energy U:
Electronic energy                ...   -927.98672171 Eh
Zero point energy                ...      0.08428210 Eh      52.89 kcal/mol
Thermal vibrational correction   ...      0.01075098 Eh       6.75 kcal/mol
Thermal rotational correction    ...      0.00161507 Eh       1.01 kcal/mol
Thermal translational correction ...      0.00161507 Eh       1.01 kcal/mol
-----------------------------------------------------------------------
Total thermal energy                   -927.88845849 Eh


Summary of corrections to the electronic energy:
(perhaps to be used in another calculation)
Total thermal correction                  0.01398112 Eh       8.77 kcal/mol
Non-thermal (ZPE) correction              0.08428210 Eh      52.89 kcal/mol
-----------------------------------------------------------------------
Total correction                          0.09826322 Eh      61.66 kcal/mol


--------
ENTHALPY
--------

The enthalpy is H = U + kB*T
                kB is Boltzmann's constant
Total thermal energy              ...   -927.88845849 Eh 
Thermal Enthalpy correction       ...      0.00107674 Eh       0.68 kcal/mol
-----------------------------------------------------------------------
Total Enthalpy                    ...   -927.88738175 Eh


Note: Only C1 symmetry has been detected, increase convergence thresholds 
      if your molecule has a higher symmetry. Symmetry factor of 1.0 is   
      used for the rotational entropy correction. 
 

Note: Rotational entropy computed according to Herzberg 
Infrared and Raman Spectra, Chapter V,1, Van Nostrand Reinhold, 1945 
Point Group:  C1, Symmetry Number:   1  
Rotational constants in cm-1:     0.063843     0.015049     0.014262 

Vibrational entropy computed according to the QRRHO of S. Grimme
Chem.Eur.J. 2012 18 9955 using a reference frequency of 100.0 cm-1


-------
ENTROPY
-------

The entropy contributions are T*S = T*(S(el)+S(vib)+S(rot)+S(trans))
     S(el)   - electronic entropy
     S(vib)  - vibrational entropy
     S(rot)  - rotational entropy
     S(trans)- translational entropy
The entropies will be listed as multiplied by the temperature to get
units of energy

Electronic entropy                ...      0.00000000 Eh      0.00 kcal/mol
Vibrational entropy               ...      0.01996041 Eh     12.53 kcal/mol
Rotational entropy                ...      0.01708644 Eh     10.72 kcal/mol
Translational entropy             ...      0.02299358 Eh     14.43 kcal/mol
-----------------------------------------------------------------------
Final entropy term                ...      0.06004044 Eh     37.68 kcal/mol

In case the symmetry of your molecule has not been determined correctly
or in case you have a reason to use a different symmetry number we print 
out the resulting rotational entropy values for sn=1,12:

 non-linear molecules -----------------------------------
|  sn= 1 | S(rot)=       0.01708644 Eh     10.72 kcal/mol|
|  sn= 2 | S(rot)=       0.01634012 Eh     10.25 kcal/mol|
|  sn= 3 | S(rot)=       0.01590355 Eh      9.98 kcal/mol|
|  sn= 4 | S(rot)=       0.01559380 Eh      9.79 kcal/mol|
|  sn= 5 | S(rot)=       0.01535354 Eh      9.63 kcal/mol|
|  sn= 6 | S(rot)=       0.01515723 Eh      9.51 kcal/mol|
|  sn= 7 | S(rot)=       0.01499125 Eh      9.41 kcal/mol|
|  sn= 8 | S(rot)=       0.01484748 Eh      9.32 kcal/mol|
|  sn= 9 | S(rot)=       0.01472066 Eh      9.24 kcal/mol|
|  sn=10 | S(rot)=       0.01460722 Eh      9.17 kcal/mol|
|  sn=11 | S(rot)=       0.01450460 Eh      9.10 kcal/mol|
|  sn=12 | S(rot)=       0.01441091 Eh      9.04 kcal/mol|
 linear molecules ---------------------------------------
|  Dinfh | S(rot)=       0.01079102 Eh      6.77 kcal/mol|
|  Cinfv | S(rot)=       0.01153734 Eh      7.24 kcal/mol|
 --------------------------------------------------------


-------------------
GIBBS FREE ENERGY
-------------------

The Gibbs free energy is G = H - T*S

Total enthalpy                    ...   -927.88738175 Eh 
Total entropy correction          ...     -0.06004044 Eh    -37.68 kcal/mol
-----------------------------------------------------------------------
Final Gibbs free energy         ...   -927.94742219 Eh

For completeness - the Gibbs free energy minus the electronic energy
G-E(el)                           ...      0.03929953 Eh     24.66 kcal/mol


Maximum memory used throughout the entire PROP-calculation: 54.8 MB

--------------------------------
SUGGESTED CITATIONS FOR THIS RUN
--------------------------------

Below you find a list of papers that are relevant to this ORCA run
We neither can nor want to force you to cite these papers, but we appreciate if you do
You receive ORCA, which is the product of decades of hard work by many enthusiastic individuals, for free
The only thing we kindly ask in return is that you cite our papers,
We deeply appreciate it, if you show your appreciation for ORCA by not just citing the generic ORCA reference.

Please note that relegating all ORCA citations to the supporting information does *not* help us.
SI sections are not indexed - citations you put there will not count into any citation statistics
But we need these citations in order to attract the funding resources that allow us to do what we are doing

Therefore, if you are a happy ORCA user, please consider citing a few of the papers listed below in the main body of your paper

In addition to the list printed below, the program has created the file HFE_347pcf2_anti.bibtex that contains the list in bibtex format
You can import this file easily into all common literature databanks and citation aid programs


List of essential papers. We consider these as the minimum necessary citations

  1. Neese, F.
     Software update: the ORCA program system, version 6.0
     WIRES Comput. Molec. Sci. 2025 15(1), e70019
     doi.org/10.1002/wcms.7019

List of papers to cite with high priority. The work reported in these papers was absolutely
necessary for this run to complete.
Our perspective: the developers of density functionals and basis sets usually get cited in chemistry papers
Good! But without the algorithms to do something with them, the functionals or basis sets would not do anything.
Hence, in our opinion, the algorithm design and method developments papers are equally worthy of getting cited

  1. Neese, F.
     An improvement of the resolution of the identity approximation for the formation of the Coulomb matrix
     J. Comp. Chem. 2003 24(14), 1740-1747
     doi.org/10.1002/jcc.10318
  2. Neese, F.; Wennmohs, F.; Hansen, A.; Becker, U.
     Efficient, approximate and parallel Hartree-Fock and hybrid DFT calculations. A 'chain-of-spheres' algorithm for the Hartree-Fock exchange
     Chem. Phys. 2009 356(1-3), 98-109
     doi.org/10.1016/j.chemphys.2008.10.036
  3. Bykov, D.; Petrenko, T.; Izsak, R.; Kossmann, S.; Becker, U.; Valeev, E.; Neese, F.
     Efficient implementation of the analytic second derivatives of Hartree-Fock and hybrid DFT energies: a detailed analysis of different approximations
     Molec. Phys. 2015 113 , 1961-1977
     doi.org/10.1080/00268976.2015.1025114
  4. Helmich-Paris, B.; de Souza, B.; Neese, F.; Izsák, R.
     An improved chain of spheres for exchange algorithm
     J. Chem. Phys. 2021 155(10), 104109
     doi.org/10.1063/5.0058766
  5. Neese, F.
     The SHARK Integral Generation and Digestion System
     J. Comp. Chem. 2022 44(3), 381
     doi.org/10.1002/jcc.26942

List of suggested additional citations. These are papers that are important in the 'surrounding' of 
of this run, or papers that preceded the highly important papers. If you like your results we are grateful for a citation.

  1. Izsak, R.; Neese, F.
     An overlap fitted chain of spheres exchange method
     J. Chem. Phys. 2011 135 , 144105
     doi.org/10.1063/1.3646921
  2. Izsak, R.; Hansen, A.; Neese, F.
     The resolution of identity and chain of spheres approximations for the LPNO-CCSD singles Fock term
     Molec. Phys. 2012 110 , 2413-2417
     doi.org/10.1080/00268976.2012.687466
  3. Neese, F.
     The ORCA program system
     WIRES Comput. Molec. Sci. 2012 2(1), 73-78
     doi.org/10.1002/wcms.81
  4. Izsak, R.; Neese, F.; Klopper, W.
     Robust fitting techniques in the chain of spheres approximation to the Fock exchange: The role of the complementary space
     J. Chem. Phys. 2013 139 , 
     doi.org/10.1063/1.4819264
  5. Neese, F.
     Software update: the ORCA program system, version 4.0
     WIRES Comput. Molec. Sci. 2018 8(1), 1-6
     doi.org/10.1002/wcms.1327
  6. Neese, F.; Wennmohs, F.; Becker, U.; Riplinger, C.
     The ORCA quantum chemistry program package
     J. Chem. Phys. 2020 152(22), 224108
     doi.org/10.1063/5.0004608
  7. Neese, F.
     Software update: The ORCA program system—Version 5.0
     WIRES Comput. Molec. Sci. 2022 12(1), e1606
     doi.org/10.1002/wcms.1606

List of optional additional citations

  1. Neese, F.
     Approximate second-order SCF convergence for spin unrestricted wavefunctions
     Chem. Phys. Lett. 2000 325(1-3), 93-98
     doi.org/10.1016/s0009-2614(00)00662-x

Timings for individual modules:

Sum of individual times          ...     1052.053 sec (=  17.534 min)
Startup calculation              ...       19.879 sec (=   0.331 min)   1.9 %
SCF iterations                   ...      404.051 sec (=   6.734 min)  38.4 %
Property integrals               ...       66.177 sec (=   1.103 min)   6.3 %
SCF Response                     ...       44.625 sec (=   0.744 min)   4.2 %
Property calculations            ...      204.362 sec (=   3.406 min)  19.4 %
SCF Gradient evaluation          ...      312.906 sec (=   5.215 min)  29.7 %
Geometry relaxation              ...        0.052 sec (=   0.001 min)   0.0 %
                             ****ORCA TERMINATED NORMALLY****
TOTAL RUN TIME: 0 days 0 hours 17 minutes 32 seconds 731 msec
