
                                 *****************
                                 * O   R   C   A *
                                 *****************

                                            #,                                       
                                            ###                                      
                                            ####                                     
                                            #####                                    
                                            ######                                   
                                           ########,                                 
                                     ,,################,,,,,                         
                               ,,#################################,,                 
                          ,,##########################################,,             
                       ,#########################################, ''#####,          
                    ,#############################################,,   '####,        
                  ,##################################################,,,,####,       
                ,###########''''           ''''###############################       
              ,#####''   ,,,,##########,,,,          '''####'''          '####       
            ,##' ,,,,###########################,,,                        '##       
           ' ,,###''''                  '''############,,,                           
         ,,##''                                '''############,,,,        ,,,,,,###''
      ,#''                                            '''#######################'''  
     '                                                          ''''####''''         
             ,#######,   #######,   ,#######,      ##                                
            ,#'     '#,  ##    ##  ,#'     '#,    #''#        ,####,    ,#,          
            ##       ##  ##   ,#'  ##            #'  '#       #'       ,# #          
            ##       ##  #######   ##           ,######,      #####,      #          
            '#,     ,#'  ##    ##  '#,     ,#' ,#      #,     #,   #      #          
             '#######'   ##     ##  '#######'  #'      '#     '####' #    #          



                #########################################################
                #                        -***-                          #
                #          Department of theory and spectroscopy        #
                #                                                       #
                #                      Frank Neese                      #
                #                                                       #
                #     Directorship, Architecture, Infrastructure        #
                #                    SHARK, DRIVERS                     #
                #        Core code/Algorithms in most modules           #
                #                                                       #
                #        Max Planck Institute fuer Kohlenforschung      #
                #                Kaiser Wilhelm Platz 1                 #
                #                 D-45470 Muelheim/Ruhr                 #
                #                      Germany                          #
                #                                                       #
                #                  All rights reserved                  #
                #                        -***-                          #
                #########################################################


                         Program Version 6.1.0  -  RELEASE   -
                                (GIT: $679e74b$)
                          ($2025-06-10 18:02:51 +0200$)


 With contributions from (in alphabetic order):
[Max-Planck-Institut fuer Kohlenforschung]                               
  Daniel Aravena         : Magnetic Suceptibility                        
  Michael Atanasov       : Ab Initio Ligand Field Theory (pilot matlab implementation)
  Alexander A. Auer      : GIAO ZORA, VPT2 properties, NMR spectrum      
  Ute Becker             : All parallelization in ORCA, NUMFREQ, NUMCALC 
  Giovanni Bistoni       : ED, misc. LED, open-shell LED, HFLD           
  Dmytro Bykov           : pre 5.0 version of the SCF Hessian            
  Marcos Casanova-Páez   : Triplet and SCS-CIS(D). UHF-(DLPNO)-IP/EA/STEOM-CCSD. UHF-CVS-IP/STEOM-CCSD   
  Vijay G. Chilkuri      : MRCI spin determinant printing, contributions to CSF-ICE 
  Pauline Colinet        : FMM embedding                                 
  Dipayan Datta          : RHF DLPNO-CCSD density                        
  Achintya Kumar Dutta   : EOM-CC, STEOM-CC                              
  Nicolas Foglia         : Exact transition moments, OPA infrastructure, MCD improvements    
  Dmitry Ganyushin       : Spin-Orbit,Spin-Spin,Magnetic field MRCI      
  Miquel Garcia-Rates    : C-PCM and meta-GGA Hessian, CCSD/C-PCM, Gaussian charge scheme 
  Tiago L. C. Gouveia    : GS-ROHF, GS-ROCIS                             
  Yang Guo               : DLPNO-NEVPT2, F12-NEVPT2, CIM, IAO-localization        
  Andreas Hansen         : Spin unrestricted coupled pair/coupled cluster methods 
  Ingolf Harden          : AUTO-CI MPn and infrastructure                
  Benjamin Helmich-Paris : MC-RPA, TRAH-(SCF,CASSCF), AVAS, COSX integrals, SCF dyn. polar., MC-PDFT, srDFT 
  Lee Huntington         : MR-EOM, pCC                                   
  Robert Izsak           : Overlap fitted RIJCOSX, COSX-SCS-MP3, EOM     
  Riya Kayal             : Wick's Theorem for AUTO-CI, AUTO-CI UHF-CCSDT 
  Emily Kempfer          : AUTO-CI RHF CISDT and CCSDT, approximate NEVPT4
  Christian Kollmar      : KDIIS, OOCD, Brueckner-CCSD(T), CCSD density, CASPT2, CASPT2-K, improved NEVPT2 
  Axel Koslowski         : Symmetry handling                             
  Simone Kossmann        : meta-GGA functionals, TD-DFT gradient, OOMP2, (MP2 Hessian; deprecated post 5.0) 
  Lucas Lang             : DCDCAS, Hyperfine gauge corrections, ICE-SOC+SSC
  Marvin Lechner         : AUTO-CI (C++ implementation), FIC-MRCC        
  Spencer Leger          : CASSCF response                               
  Dagmar Lenk            : GEPOL surface, SMD, ORCA-2-JSON               
  Dimitrios Liakos       : Extrapolation schemes; Compound Job, Property file
  Dimitrios Manganas     : Further ROCIS development; embedding schemes. LFT, Crystal Embedding 
  Dimitrios Pantazis     : SARC Basis sets                               
  Anastasios Papadopoulos: AUTO-CI, single reference methods and gradients 
  Taras Petrenko         : pre 6.0 DFT Hessian and TD-DFT gradient,  ECA, NRVS 
  Petra Pikulova         : Analytic Raman intensities                    
  Peter Pinski           : DLPNO-MP2, DLPNO-MP2 Gradient                 
  Shashank Vittal Rao    : ES-AILFT, MagRelax                            
  Christoph Reimann      : Effective Core Potentials                     
  Marius Retegan         : Local ZFS, SOC                                
  Christoph Riplinger    : Optimizer, TS searches, QM/MM, DLPNO-CCSD(T), (RO)-DLPNO pert. Triples 
  Michael Roemelt        : Original ROCIS implementation, recursive CI coupling coefficients
  Masaaki Saitow         : Open-shell DLPNO-CCSD energy and density      
  Barbara Sandhoefer     : DKH picture change effects                    
  Yorick L. A. Schmerwitz: GMF and freeze-and-release deltaSCF, NEB S-IDPP initial path                    
  Kantharuban Sivalingam : CASSCF convergence/infrastructure, NEVPT2, NEVPT3, NEVPT4(SD), FIC-MRCI and CEPA variants
  Bernardo de Souza      : ESD, SOC TD-DFT                               
  Georgi L. Stoychev     : AutoAux, RI-MP2 NMR, DLPNO-MP2 response, X2C  
  Van Anh Tran           : RI-MP2 g-tensors                              
  Willem Van den Heuvel  : Paramagnetic NMR                              
  Zikuan Wang            : NOTCH, Electric field optimization            
  Frank Wennmohs         : Technical directorship and infrastructure     
  Hang Xu                : AUTO-CI-Response properties                   
                                                                         
[FACCTs GmbH]                                                            
  Markus Bursch, Nicolas Foglia, Miquel Garcia-Rates, Ingolf Harden, Hagen Neugebauer, Anastasios Papadopoulos, 
  Christoph Riplinger, Bernardo de Souza, Georgi L. Stoychev                                                    
                                                                 
  APM, various basis sets, CI-OPT, improved COSX, DLPNO-Multilevel,           
  DOCKER, DRACO, updates on ESD, Fragmentator, GOAT, IRC, LR-CPCM, L-BFGS, MBIS, meta-GGA TD-DFT gradient, ML-optimized integration grids, 
  MM, NACMEs, nearIR, NEB, NEB-TS, NL-DFT gradient (VV10), 2- and 3-layer-ONIOM, interface openCOSMO-RS, QMMM,   
  Crystal-QMMM, RESP, rigid body optimization, SF, symmetry and pop. for TD-DFT, various functionals, SOLVATOR                                   
                                                                         
[Other institutions]                                                     
  V. Asgeirsson          : NEB                                           
  Christoph Bannwarth    : sTDA-DFT, sTD-DFT, PBEh-3c, B97-3c, D3        
  Giovanni Bistoni       : ETS/NOCV, ADLD/ADEX, COVALED                  
  Martin Brehm           : Molecular dynamics                            
  Ronald Cardenas        : ETS/NOCV                                      
  Martina Colucci        : COVALED                                       
  Sebastian Ehlert       : rSCAN, r2SCAN, r2SCAN-3c, D4, dhf basis sets  
  Marvin Friede          : D4 for Fr, Ra, Ac-Lr                          
  Lars Goerigk           : TD-DFT with DH, B97 family of functionals     
  Stefan Grimme          : VdW corrections, initial TS optimization, DFT functionals, gCP, sTDA/sTD-DF 
  Waldemar Hujo          : DFT-NL                                        
  H. Jonsson             : NEB                                           
  Holger Kruse           : gCP                                           
  Marcel Mueller         : wB97X-3c, vDZP basis set                      
  Hagen Neugebauer       : wr2SCAN, Native XTB                           
  Gianluca Regni         : ADLD/ADEX                                     
  Tobias Risthaus        : pre 6.0 range-separated hybrid DFT and stability analysis
  Lukas Wittmann         : regularized MP2, r2SCAN double-hybrids, wr2SCAN        
                                                                         
We gratefully acknowledge several colleagues who have allowed us to      
interface, adapt or use parts of their codes:                            
  Ed Valeev, F. Pavosevic, A. Kumar             : LibInt (2-el integral package), F12 methods 
  Garnet Chan, S. Sharma, J. Yang, R. Olivares  : DMRG                   
  Ulf Ekstrom                                   : XCFun DFT Library      
  Mihaly Kallay                                 : mrcc  (arbitrary order and MRCC methods)
  Frank Weinhold                                : gennbo (NPA and NBO analysis)           
  Simon Mueller                                 : openCOSMO-RS                            
  Christopher J. Cramer and Donald G. Truhlar   : smd solvation model                     
  S Lehtola, MJT Oliveira, MAL Marques          : LibXC Library                           
  Liviu Ungur et al                             : ANISO software                          


 Your calculation uses the libint2 library for the computation of 2-el integrals
 For citations please refer to: http://libint.valeyev.net

 Your ORCA version has been built with support for libXC version: 7.0.0
 For citations please refer to: https://libxc.gitlab.io

 This ORCA versions uses:
   CBLAS   interface :  Fast vector & matrix operations
   LAPACKE interface :  Fast linear algebra routines
   SCALAPACK package :  Parallel linear algebra routines
   Shared memory     :  Shared parallel matrices
   BLAS/LAPACK       :  OpenBLAS 0.3.29  USE64BITINT DYNAMIC_ARCH NO_AFFINITY Haswell SINGLE_THREADED
        Core in use  :  Haswell
   Copyright (c) 2011-2014, The OpenBLAS Project


  ***********************************
  * Starting time: Wed Feb 11 16:45:35 2026
  * Host name:     BOOK-611GI2U5BQ
  * Process ID:    375474
  * Working dir.:  /home/a_limbo/IR_LAB_2027/data/HFE-347pcf2/B3PW91_6_31Gd/ORCA_files
  ***********************************

Warning: RI is on but no J-basis has been assigned. Assigning Def2/J (nothing to worry about!)
================================================================================

----- Orbital basis set information -----
Your calculation utilizes the basis: 6-31G(d)
   H-He, Li-Ne : W. J. Hehre, R. Ditchfield and J.A. Pople, J. Chem. Phys. 56, 2257 (1972).
                 Note: He and Ne are unpublished basis sets taken from the Gaussian program.
                 Note: Li and B from J. D. Dill and J. A. Pople, J. Chem. Phys. 62, 2921 (1975).
   Na - Ar     : M. M. Francl, W. J. Pietro, W. J. Hehre, J. S. Binkley, M. S. Gordon, 
                 D. J. DeFrees and J. A. Pople, J. Chem. Phys. 77, 3654 (1982).
   K - Zn      : V. A. Rassolov, J. A. Pople, M. A. Ratner, and T. L. Windus, J. Chem. Phys. 109, 1223 (1998).

----- AuxJ basis set information -----
Your calculation utilizes the auxiliary basis: def2/J
   H-Rn: F. Weigend, Phys. Chem. Chem. Phys. 8, 1057 (2006).
   Fr-Lr: K. Eichkorn, F. Weigend, O. Treutler, R. Ahlrichs; Theor. Chem. Acc. 97, 119 (1997).

================================================================================
                                        WARNINGS
                       Please study these warnings very carefully!
================================================================================

WARNING: Old DensityContainer found on disk!
         Will remove this file - 
         If you want to keep old densities, please start your calculation with a different basename. 


WARNING: Geometry Optimization
  ===> : Switching off AutoStart
         For restart on a previous wavefunction, please use MOREAD

================================================================================
                                       INPUT FILE
================================================================================
NAME = HFE_347pcf2_gauche1.inp
|  1> # avogadro generated ORCA input file 
|  2> # Basic Mode
|  3> # 
|  4> ! B3PW91 6-31G(d) OPT FREQ 
|  5> % FREQ TEMP 305, 320, 340 END
|  6> 
|  7> * xyz 0 1
|  8>    F        2.03360        0.95850       -1.19810
|  9>    F        1.40780        1.54460        0.81840
| 10>    F        3.14700       -0.57680        0.75040
| 11>    F        1.78880       -1.67110       -0.55230
| 12>    F       -2.75120        1.05380       -0.44060
| 13>    F       -3.13920       -0.46580        1.07550
| 14>    F       -2.38540       -1.04850       -0.89120
| 15>    O       -0.05490        0.42730       -0.50780
| 16>    C        1.30530        0.57550       -0.12160
| 17>    C       -0.88930        0.03820        0.57430
| 18>    C        1.84110       -0.72430        0.41630
| 19>    C       -2.30350       -0.11120        0.07660
| 20>    H       -0.85070        0.79020        1.36930
| 21>    H       -0.60420       -0.93450        0.98000
| 22>    H        1.34190       -1.10100        1.30910
| 23> *
| 24> 
| 25> 
| 26>                          ****END OF INPUT****
================================================================================

                       *****************************
                       * Geometry Optimization Run *
                       *****************************

Geometry optimization settings:
Update method            Update   .... BFGS
Choice of coordinates    CoordSys .... (2022) Redundant Internals
Initial Hessian          InHess   .... Almloef's Model
Max. no of cycles        MaxIter  .... 50

Convergence Tolerances:
Energy Change            TolE     ....  5.0000e-06 Eh
Max. Gradient            TolMAXG  ....  3.0000e-04 Eh/bohr
RMS Gradient             TolRMSG  ....  1.0000e-04 Eh/bohr
Max. Displacement        TolMAXD  ....  4.0000e-03 bohr
RMS Displacement         TolRMSD  ....  2.0000e-03 bohr
Strict Convergence                .... False

------------------------------------------------------------------------------
                        ORCA OPTIMIZATION COORDINATE SETUP
------------------------------------------------------------------------------

The optimization will be done in redundant internal coordinates (2022)
Making redundant internal coordinates   ...  (2022 redundants) done
Evaluating the initial hessian          ...  (Almloef) done
Evaluating the coordinates              ...  done
Calculating the B-matrix                .... done
Calculating the G-matrix                .... done
The number of degrees of freedom        ....   57

    -----------------------------------------------------------------
                    Redundant Internal Coordinates


    -----------------------------------------------------------------
         Definition                    Initial Value    Approx d2E/dq
    -----------------------------------------------------------------
      1. B(C   8,F   1)                  1.3540         0.593519   
      2. B(C   8,O   7)                  1.4217         0.498064   
      3. B(C   8,F   0)                  1.3550         0.591349   
      4. B(C   9,O   7)                  1.4208         0.499802   
      5. B(C  10,F   3)                  1.3555         0.590237   
      6. B(C  10,C   8)                  1.5053         0.409073   
      7. B(C  10,F   2)                  1.3560         0.589116   
      8. B(C  11,F   6)                  1.3498         0.602772   
      9. B(C  11,F   5)                  1.3498         0.602722   
     10. B(C  11,C   9)                  1.5066         0.407038   
     11. B(C  11,F   4)                  1.3510         0.600088   
     12. B(H  12,C   9)                  1.0950         0.353550   
     13. B(H  13,C   9)                  1.0918         0.357731   
     14. B(H  14,C  10)                  1.0900         0.360042   
     15. A(C   8,O   7,C   9)          112.5529         0.396621   
     16. A(F   1,C   8,C  10)          110.0601         0.395702   
     17. A(F   1,C   8,O   7)          109.6106         0.407036   
     18. A(O   7,C   8,C  10)          110.3408         0.385424   
     19. A(F   0,C   8,C  10)          109.6731         0.395448   
     20. A(F   0,C   8,F   1)          107.9727         0.417791   
     21. A(F   0,C   8,O   7)          109.1410         0.406773   
     22. A(H  12,C   9,H  13)          109.4422         0.289702   
     23. A(C  11,C   9,H  13)          106.2311         0.328574   
     24. A(O   7,C   9,H  13)          111.9409         0.337905   
     25. A(C  11,C   9,H  12)          109.9391         0.327938   
     26. A(O   7,C   9,H  12)          110.1320         0.337243   
     27. A(O   7,C   9,C  11)          109.0757         0.385323   
     28. A(F   3,C  10,H  14)          109.0393         0.346384   
     29. A(F   2,C  10,H  14)          106.0711         0.346274   
     30. A(F   2,C  10,F   3)          106.8099         0.417097   
     31. A(F   3,C  10,C   8)          109.5154         0.395317   
     32. A(C   8,C  10,H  14)          115.3455         0.329195   
     33. A(F   2,C  10,C   8)          109.6887         0.395186   
     34. A(F   4,C  11,C   9)          110.6102         0.396120   
     35. A(F   5,C  11,F   6)          108.0967         0.420370   
     36. A(F   4,C  11,F   6)          107.7110         0.420042   
     37. A(F   4,C  11,F   5)          107.7389         0.420035   
     38. A(F   6,C  11,C   9)          111.2641         0.396430   
     39. A(F   5,C  11,C   9)          111.2680         0.396425   
     40. D(F   1,C   8,O   7,C   9)    -61.3572         0.019607   
     41. D(F   0,C   8,O   7,C   9)   -179.4173         0.019607   
     42. D(C  10,C   8,O   7,C   9)     60.0038         0.019607   
     43. D(H  13,C   9,O   7,C   8)    -62.0724         0.019748   
     44. D(H  12,C   9,O   7,C   8)     59.9242         0.019748   
     45. D(C  11,C   9,O   7,C   8)   -179.3399         0.019748   
     46. D(F   2,C  10,C   8,F   0)     58.2858         0.013258   
     47. D(F   3,C  10,C   8,O   7)     61.6286         0.013258   
     48. D(F   3,C  10,C   8,F   1)   -177.2779         0.013258   
     49. D(F   3,C  10,C   8,F   0)    -58.6311         0.013258   
     50. D(F   2,C  10,C   8,O   7)    178.5455         0.013258   
     51. D(F   2,C  10,C   8,F   1)    -60.3609         0.013258   
     52. D(F   4,C  11,C   9,H  13)    179.6130         0.013130   
     53. D(F   4,C  11,C   9,H  12)     61.2936         0.013130   
     54. D(F   4,C  11,C   9,O   7)    -59.5604         0.013130   
     55. D(F   5,C  11,C   9,H  13)     59.8979         0.013130   
     56. D(F   5,C  11,C   9,H  12)    -58.4215         0.013130   
     57. D(F   5,C  11,C   9,O   7)   -179.2756         0.013130   
    -----------------------------------------------------------------

Number of atoms                         .... 15
Number of degrees of freedom            .... 57


         *************************************************************
         *                GEOMETRY OPTIMIZATION CYCLE   1            *
         *************************************************************
---------------------------------
CARTESIAN COORDINATES (ANGSTROEM)
---------------------------------
  F      2.033600    0.958500   -1.198100
  F      1.407800    1.544600    0.818400
  F      3.147000   -0.576800    0.750400
  F      1.788800   -1.671100   -0.552300
  F     -2.751200    1.053800   -0.440600
  F     -3.139200   -0.465800    1.075500
  F     -2.385400   -1.048500   -0.891200
  O     -0.054900    0.427300   -0.507800
  C      1.305300    0.575500   -0.121600
  C     -0.889300    0.038200    0.574300
  C      1.841100   -0.724300    0.416300
  C     -2.303500   -0.111200    0.076600
  H     -0.850700    0.790200    1.369300
  H     -0.604200   -0.934500    0.980000
  H      1.341900   -1.101000    1.309100

----------------------------
CARTESIAN COORDINATES (A.U.)
----------------------------
  NO LB      ZA    FRAG     MASS         X           Y           Z
   0 F     9.0000    0    18.998    3.842947    1.811302   -2.264081
   1 F     9.0000    0    18.998    2.660356    2.918871    1.546552
   2 F     9.0000    0    18.998    5.946968   -1.089994    1.418050
   3 F     9.0000    0    18.998    3.380342   -3.157921   -1.043696
   4 F     9.0000    0    18.998   -5.199015    1.991393   -0.832613
   5 F     9.0000    0    18.998   -5.932228   -0.880234    2.032400
   6 F     9.0000    0    18.998   -4.507753   -1.981378   -1.684124
   7 O     8.0000    0    15.999   -0.103746    0.807480   -0.959603
   8 C     6.0000    0    12.011    2.466660    1.087537   -0.229791
   9 C     6.0000    0    12.011   -1.680533    0.072188    1.085270
  10 C     6.0000    0    12.011    3.479175   -1.368729    0.786693
  11 C     6.0000    0    12.011   -4.352984   -0.210138    0.144753
  12 H     1.0000    0     1.008   -1.607590    1.493262    2.587602
  13 H     1.0000    0     1.008   -1.141773   -1.765949    1.851932
  14 H     1.0000    0     1.008    2.535823   -2.080588    2.473840

--------------------------------
INTERNAL COORDINATES (ANGSTROEM)
--------------------------------
 F      0   0   0     0.000000000000     0.00000000     0.00000000
 F      1   0   0     2.191212244398     0.00000000     0.00000000
 F      1   2   0     2.719091373970    66.95269226     0.00000000
 F      3   1   2     2.176976577733    66.39338032   114.53912106
 F      2   1   3     4.373013450700    88.66211289   235.33513761
 F      5   2   1     2.181349896280    92.70835785   120.39000474
 F      5   2   1     2.180943669607    90.46710442    60.27552537
 O      1   2   3     2.262856553120    61.21437214   105.48298545
 C      2   1   3     1.353979711813    36.02899012   290.80489025
 C      8   1   2     1.420761267772   146.99999123   325.10918997
 C      4   3   1     1.355489391327    36.60314589   290.12731330
 C      7   5   2     1.349768772790    36.16333255    55.34989779
 H     10   8   1     1.094997242006   110.13203910    59.31889680
 H     10   8   1     1.091796588198   111.94085263   297.32238297
 H     11   4   3     1.090043746829   109.03927371   245.78398568

---------------------------
INTERNAL COORDINATES (A.U.)
---------------------------
 F      0   0   0     0.000000000000     0.00000000     0.00000000
 F      1   0   0     4.140791043207     0.00000000     0.00000000
 F      1   2   0     5.138338029912    66.95269226     0.00000000
 F      3   1   2     4.113889531877    66.39338032   114.53912106
 F      2   1   3     8.263797801776    88.66211289   235.33513761
 F      5   2   1     4.122153906226    92.70835785   120.39000474
 F      5   2   1     4.121386249067    90.46710442    60.27552537
 O      1   2   3     4.276179165747    61.21437214   105.48298545
 C      2   1   3     2.558650846211    36.02899012   290.80489025
 C      8   1   2     2.684849697771   146.99999123   325.10918997
 C      4   3   1     2.561503727044    36.60314589   290.12731330
 C      7   5   2     2.550693324693    36.16333255    55.34989779
 H     10   8   1     2.069244904790   110.13203910    59.31889680
 H     10   8   1     2.063196545643   111.94085263   297.32238297
 H     11   4   3     2.059884155499   109.03927371   245.78398568

---------------------
BASIS SET INFORMATION
---------------------
There are 4 groups of distinct atoms

 Group   1 Type F   : 10s4p1d contracted to 3s2p1d pattern {631/31/1}
 Group   2 Type O   : 10s4p1d contracted to 3s2p1d pattern {631/31/1}
 Group   3 Type C   : 10s4p1d contracted to 3s2p1d pattern {631/31/1}
 Group   4 Type H   : 4s contracted to 2s pattern {31}

Atom   0F    basis set group =>   1
Atom   1F    basis set group =>   1
Atom   2F    basis set group =>   1
Atom   3F    basis set group =>   1
Atom   4F    basis set group =>   1
Atom   5F    basis set group =>   1
Atom   6F    basis set group =>   1
Atom   7O    basis set group =>   2
Atom   8C    basis set group =>   3
Atom   9C    basis set group =>   3
Atom  10C    basis set group =>   3
Atom  11C    basis set group =>   3
Atom  12H    basis set group =>   4
Atom  13H    basis set group =>   4
Atom  14H    basis set group =>   4
---------------------------------
AUXILIARY/J BASIS SET INFORMATION
---------------------------------
There are 4 groups of distinct atoms

 Group   1 Type F   : 12s5p4d2f1g contracted to 6s4p3d1f1g pattern {711111/2111/211/2/1}
 Group   2 Type O   : 12s5p4d2f1g contracted to 6s4p3d1f1g pattern {711111/2111/211/2/1}
 Group   3 Type C   : 12s5p4d2f1g contracted to 6s4p3d1f1g pattern {711111/2111/211/2/1}
 Group   4 Type H   : 5s2p1d contracted to 3s1p1d pattern {311/2/1}

Atom   0F    basis set group =>   1
Atom   1F    basis set group =>   1
Atom   2F    basis set group =>   1
Atom   3F    basis set group =>   1
Atom   4F    basis set group =>   1
Atom   5F    basis set group =>   1
Atom   6F    basis set group =>   1
Atom   7O    basis set group =>   2
Atom   8C    basis set group =>   3
Atom   9C    basis set group =>   3
Atom  10C    basis set group =>   3
Atom  11C    basis set group =>   3
Atom  12H    basis set group =>   4
Atom  13H    basis set group =>   4
Atom  14H    basis set group =>   4
------------------------------------------------------------------------------
                             ORCA STARTUP CALCULATIONS
                           -- RI-GTO INTEGRALS CHOSEN --
------------------------------------------------------------------------------
------------------------------------------------------------------------------
                   ___                                                        
                  /   \      - P O W E R E D   B Y -                         
                 /     \                                                     
                 |  |  |   _    _      __       _____    __    __             
                 |  |  |  | |  | |    /  \     |  _  \  |  |  /  |          
                  \  \/   | |  | |   /    \    | | | |  |  | /  /          
                 / \  \   | |__| |  /  /\  \   | |_| |  |  |/  /          
                |  |  |   |  __  | /  /__\  \  |    /   |      \           
                |  |  |   | |  | | |   __   |  |    \   |  |\   \          
                \     /   | |  | | |  |  |  |  | |\  \  |  | \   \       
                 \___/    |_|  |_| |__|  |__|  |_| \__\ |__|  \__/        
                                                                              
                      - O R C A' S   B I G   F R I E N D -                    
                                      &                                       
                       - I N T E G R A L  F E E D E R -                       
                                                                              
 v1 FN, 2020, v2 2021, v3 2022-2024                                           
------------------------------------------------------------------------------


----------------------
SHARK INTEGRAL PACKAGE
----------------------

Number of atoms                             ...     15
Number of basis functions                   ...    174
Number of shells                            ...     78
Maximum angular momentum                    ...      2
Integral batch strategy                     ... SHARK/LIBINT Hybrid
RI-J (if used) integral strategy            ... SPLIT-RIJ (Revised 2003 algorithm where possible)
Printlevel                                  ...      1
Contraction scheme used                     ... SEGMENTED contraction
Prescreening option                         ... SCHWARTZ
   Thresh                                   ... 2.500e-11
   Tcut                                     ... 2.500e-12
   Tpresel                                  ... 2.500e-12 
Coulomb Range Separation                    ... NOT USED
Exchange Range Separation                   ... NOT USED
Multipole approximations                    ... NOT USED
Finite Nucleus Model                        ... NOT USED
CABS basis                                  ... NOT available
Auxiliary Coulomb fitting basis             ... AVAILABLE
   # of basis functions in Aux-J            ...    621
   # of shells in Aux-J                     ...    195
   Maximum angular momentum in Aux-J        ...      4
Auxiliary J/K fitting basis                 ... NOT available
Auxiliary Correlation fitting basis         ... NOT available
Auxiliary 'external' fitting basis          ... NOT available

Checking pre-screening integrals            ... done (  0.0 sec) Dimension = 78
   => SHARK Basis and OBASIS are compatible. Storing Pre-screening
Shell pair information
Shell pair cut-off parameter TPreSel        ...   2.5e-12
Total number of shell pairs                 ...      3081
Shell pairs after pre-screening             ...      2570
Total number of primitive shell pairs       ...     18789
Primitive shell pairs kept                  ...      9365
          la=0 lb=0:    714 shell pairs
          la=1 lb=0:    860 shell pairs
          la=1 lb=1:    275 shell pairs
          la=2 lb=0:    403 shell pairs
          la=2 lb=1:    252 shell pairs
          la=2 lb=2:     66 shell pairs

Checking whether 4 symmetric matrices of dimension 174 fit in memory
:Max Core in MB      =   4096.00
 MB in use           =      7.09
 MB left             =   4088.91
 MB needed           =      0.46
 Data fit in memory  = YES
Calculating RI/J V-Matrix + Cholesky decomp.... done (  0.0 sec)
Calculating Nuclear repulsion               ... done (  0.0 sec) ENN=    847.814180921515 Eh

Diagonalization of the overlap matrix:
Smallest eigenvalue                        ... 3.045e-03
Time for diagonalization                   ...    0.003 sec
Threshold for overlap eigenvalues          ... 1.000e-07
Number of eigenvalues below threshold      ... 0
Time for construction of square roots      ...    0.001 sec
Total time needed                          ...    0.004 sec

-------------------
DFT GRID GENERATION
-------------------

General Integration Accuracy     IntAcc      ... 4.388
Radial Grid Type                 RadialGrid  ... OptM3 with GC (2021)
Angular Grid (max. ang.)         AngularGrid ... 4 (Lebedev-302)
Angular grid pruning method      GridPruning ... 4 (adaptive)
Weight generation scheme         WeightScheme... mBecke (2022)
Basis function cutoff            BFCut       ... 1.0000e-11
Integration weight cutoff        WCut        ... 1.0000e-14
Partially contracted basis set               ... off
Rotationally invariant grid construction     ... off
Angular grids for H and He will be reduced by one unit

Total number of grid points                  ...    82503
Total number of batches                      ...     1297
Average number of points per batch           ...       63
Average number of grid points per atom       ...     5500

--------------------
COSX GRID GENERATION
--------------------

GRIDX 1
-------
General Integration Accuracy     IntAcc      ... 3.816
Radial Grid Type                 RadialGrid  ... OptM3 with GC (2021)
Angular Grid (max. ang.)         AngularGrid ... 1 (Lebedev-50)
Angular grid pruning method      GridPruning ... 4 (adaptive)
Weight generation scheme         WeightScheme... mBecke (2022)
Basis function cutoff            BFCut       ... 1.0000e-11
Integration weight cutoff        WCut        ... 1.0000e-14
Partially contracted basis set               ... on
Rotationally invariant grid construction     ... off
Angular grids for H and He will be reduced by one unit

Total number of grid points                  ...    10397
Total number of batches                      ...       88
Average number of points per batch           ...      118
Average number of grid points per atom       ...      693
UseSFitting                                  ... on

GRIDX 2
-------
General Integration Accuracy     IntAcc      ... 4.020
Radial Grid Type                 RadialGrid  ... OptM3 with GC (2021)
Angular Grid (max. ang.)         AngularGrid ... 2 (Lebedev-110)
Angular grid pruning method      GridPruning ... 4 (adaptive)
Weight generation scheme         WeightScheme... mBecke (2022)
Basis function cutoff            BFCut       ... 1.0000e-11
Integration weight cutoff        WCut        ... 1.0000e-14
Partially contracted basis set               ... on
Rotationally invariant grid construction     ... off
Angular grids for H and He will be reduced by one unit

Total number of grid points                  ...    24114
Total number of batches                      ...      196
Average number of points per batch           ...      123
Average number of grid points per atom       ...     1608
UseSFitting                                  ... on

GRIDX 3
-------
General Integration Accuracy     IntAcc      ... 4.338
Radial Grid Type                 RadialGrid  ... OptM3 with GC (2021)
Angular Grid (max. ang.)         AngularGrid ... 3 (Lebedev-194)
Angular grid pruning method      GridPruning ... 4 (adaptive)
Weight generation scheme         WeightScheme... mBecke (2022)
Basis function cutoff            BFCut       ... 1.0000e-11
Integration weight cutoff        WCut        ... 1.0000e-14
Partially contracted basis set               ... on
Rotationally invariant grid construction     ... off
Angular grids for H and He will be reduced by one unit

Total number of grid points                  ...    53457
Total number of batches                      ...      426
Average number of points per batch           ...      125
Average number of grid points per atom       ...     3564
UseSFitting                                  ... on
Grids setup in   1.0 sec
Initializing property integral containers    ... done (  0.0 sec)

SHARK setup successfully completed in   1.1 seconds

Maximum memory used throughout the entire STARTUP-calculation: 33.8 MB
-------------------------------------------------------------------------------
                                 ORCA GUESS
                   Start orbitals & Density for SCF / CASSCF
-------------------------------------------------------------------------------

------------
SCF SETTINGS
------------
Hamiltonian:
 Density Functional     Method          .... DFT(GTOs)
 Exchange Functional    Exchange        .... B88
   X-Alpha parameter    XAlpha          ....  0.666667
   Becke's b parameter  XBeta           ....  0.004200
 Correlation Functional Correlation     .... PW91
 LDA part of GGA corr.  LDAOpt          .... PW91-LDA
 Gradients option       PostSCFGGA      .... off
 Hybrid DFT is turned on
   Fraction HF Exchange ScalHFX         ....  0.200000
   Scaling of DF-GGA-X  ScalDFX         ....  0.720000
   Scaling of DF-GGA-C  ScalDFC         ....  0.810000
   Scaling of DF-LDA-C  ScalLDAC        ....  1.000000
   Perturbative correction              ....  0.000000
   NL short-range parameter             ....  4.500000
 RI-approximation to the Coulomb term is turned on
   Number of AuxJ basis functions       .... 621
   RIJ-COSX (HFX calculated with COS-X)).... on


General Settings:
 Integral files         IntName         .... HFE_347pcf2_gauche1
 Hartree-Fock type      HFTyp           .... RHF
 Total Charge           Charge          ....    0
 Multiplicity           Mult            ....    1
 Number of Electrons    NEL             ....   98
 Basis Dimension        Dim             ....  174
 Nuclear Repulsion      ENuc            ....    847.8141809215 Eh

Convergence Acceleration:
 AO-DIIS                CNVDIIS         .... on
   Start iteration      DIISMaxIt       ....    12
   Startup error        DIISStart       ....  0.200000
   # of expansion vecs  DIISMaxEq       ....     5
   Bias factor          DIISBfac        ....   1.050
   Max. coefficient     DIISMaxC        ....  10.000
 MO-DIIS                CNVKDIIS        .... off
 Trust-Rad. Augm. Hess. CNVTRAH         .... auto
   Auto Start mean grad. ratio tolernc. ....  1.125000
   Auto Start start iteration           ....    50
   Auto Start num. interpolation iter.  ....    10
   Max. Number of Micro iterations      ....    24
   Max. Number of Macro iterations      .... Maxiter - #DIIS iter
   Number of Davidson start vectors     ....     2
   Converg. threshold    (grad. norm)   ....   1.000e-05
   Grad. Scal. Fac. for Micro threshold ....   0.100
   Minimum threshold for Micro iter.    ....   1.000e-02
   NR start threshold (gradient norm)   ....   1.000e-04
   Initial trust radius                 ....   0.400
   Minimum AH scaling param. (alpha)    ....   1.000
   Maximum AH scaling param. (alpha)    .... 1000.000
   Quad. conv. algorithm                .... NR
   White noise on init. David. guess    .... on
   Maximum white noise                  ....   0.010
   Pseudo random numbers                .... off
   Inactive MOs                         .... canonical
   Orbital update algorithm             .... Taylor
   Preconditioner                       .... Diag
   Full preconditioner red. dimension   ....   250
 SOSCF                 CNVSOSCF           .... on
   Start iteration     SOSCFMaxIt         ....   150
   Startup grad/error  SOSCFStart         ....  0.003300
   Hessian update      SOSCFHessUp        .... L-BFGS
   Autom. constraints  SOSCFAutoConstrain .... off
 Level Shifting         CNVShift        .... on
   Level shift para.    LevelShift      ....    0.2500
   Turn off err/grad.   ShiftErr        ....    0.0010
 Zerner damping         CNVZerner       .... off
 Static damping         CNVDamp         .... on
   Fraction old density DampFac         ....    0.7000
   Max. Damping (<1)    DampMax         ....    0.9800
   Min. Damping (>=0)   DampMin         ....    0.0000
   Turn off err/grad.   DampErr         ....    0.1000

SCF Procedure:
 Maximum # iterations   MaxIter         ....   125
 SCF integral mode      SCFMode         .... Direct
   Integral package                     .... SHARK and LIBINT hybrid scheme
 Reset frequency        DirectResetFreq ....    20
 Integral Threshold     Thresh          ....  2.500e-11 Eh
 Primitive CutOff       TCut            ....  2.500e-12 Eh

Convergence Tolerance:
 Convergence Check Mode ConvCheckMode   .... Total+1el-Energy
 Convergence forced     ConvForced      .... 0
 Energy Change          TolE            ....  1.000e-08 Eh
 1-El. energy change                    ....  1.000e-05 Eh
 Orbital Gradient       TolG            ....  1.000e-05
 Orbital Rotation angle TolX            ....  1.000e-05
 DIIS Error             TolErr          ....  5.000e-07

------------------------------
INITIAL GUESS: MODEL POTENTIAL
------------------------------
Loading Hartree-Fock densities                     ... done
Calculating cut-offs                               ... done
Initializing the effective Hamiltonian             ... done
Setting up the integral package (SHARK)            ... done
Starting the Coulomb interaction                   ... done (   0.1 sec)
Making the grid                                    ... done (   0.1 sec)
Mapping shells                                     ... done
Starting the XC term evaluation                    ... done (   0.1 sec)
  promolecular density results
     # of electrons  =     98.000333032
     EX              =   -100.074939290
     EC              =     -3.688983518
     EX+EC           =   -103.763922808
Transforming the Hamiltonian                       ... done (   0.0 sec)
Diagonalizing the Hamiltonian                      ... done (   0.0 sec)
Back transforming the eigenvectors                 ... done (   0.0 sec)
Now organizing SCF variables                       ... done
                      ------------------
                      INITIAL GUESS DONE (   0.4 sec)
                      ------------------
             **** ENERGY FILE WAS UPDATED (HFE_347pcf2_gauche1.en.tmp) ****
Finished Guess after   0.4 sec
Maximum memory used throughout the entire GUESS-calculation: 12.2 MB

-------------------------------------------------------------------------------------------
                                      ORCA LEAN-SCF
                              memory conserving SCF solver
-------------------------------------------------------------------------------------------

----------------------------------------D-I-I-S--------------------------------------------
Iteration    Energy (Eh)           Delta-E    RMSDP     MaxDP     DIISErr   Damp  Time(sec)
-------------------------------------------------------------------------------------------
               ***  Starting incremental Fock matrix formation  ***
    1    -927.7834434293193908     0.00e+00  2.43e-03  5.72e-02  1.91e-01  0.700   3.4
    2    -927.8742220549260082    -9.08e-02  1.34e-03  3.15e-02  7.61e-02  0.700   1.6
                               ***Turning on AO-DIIS***
    3    -927.9050317151301215    -3.08e-02  3.92e-04  9.25e-03  2.08e-02  0.700   1.6
    4    -927.9253497355913396    -2.03e-02  6.97e-04  1.42e-02  1.11e-02  0.000   1.5
                              *** Initializing SOSCF ***
---------------------------------------S-O-S-C-F--------------------------------------
Iteration    Energy (Eh)           Delta-E    RMSDP     MaxDP     MaxGrad    Time(sec)
--------------------------------------------------------------------------------------
    5    -927.9718921629968236    -4.65e-02  1.32e-04  2.68e-03  2.69e-03     1.5
               *** Restarting incremental Fock matrix formation ***
    6    -927.9718812086883872     1.10e-05  5.29e-05  9.01e-04  2.28e-04     3.3
    7    -927.9718818140180474    -6.05e-07  2.47e-05  5.79e-04  2.30e-04     2.5
    8    -927.9718856886066760    -3.87e-06  8.00e-06  1.66e-04  5.82e-05     2.3
    9    -927.9718857392775817    -5.07e-08  3.66e-06  9.04e-05  3.87e-05     2.1
   10    -927.9718858235283960    -8.43e-08  1.57e-06  2.56e-05  7.75e-06     1.9
   11    -927.9718858232153025     3.13e-10  7.77e-07  1.84e-05  7.81e-06     1.8
                 **** Energy Check signals convergence ****

               *****************************************************
               *                     SUCCESS                       *
               *           SCF CONVERGED AFTER  11 CYCLES          *
               *****************************************************

Recomputing exchange energy using gridx3       ... done (    5.623 sec)
Old exchange energy                            :    -20.111253639 Eh
New exchange energy                            :    -20.111240786 Eh
Exchange energy change after final integration :      0.000012852 Eh
Total energy after final integration           :   -927.971872976 Eh
             **** ENERGY FILE WAS UPDATED (HFE_347pcf2_gauche1.en.tmp) ****

----------------
TOTAL SCF ENERGY
----------------

Total Energy       :       -927.97187297583832 Eh          -25251.39842 eV

Components:
Nuclear Repulsion  :        847.81418092151500 Eh           23070.19673 eV
Electronic Energy  :      -1775.78606674974117 Eh          -48321.59550 eV
One Electron Energy:      -2973.86979237783316 Eh          -80923.11110 eV
Two Electron Energy:       1198.08372562809200 Eh           32601.51560 eV

Virial components:
Potential Energy   :      -1851.29738673789961 Eh          -50376.36298 eV
Kinetic Energy     :        923.32551376206129 Eh           25124.96456 eV
Virial Ratio       :          2.00503220061021

DFT components:
N(Alpha)           :       48.999990641331 electrons
N(Beta)            :       48.999990641331 electrons
N(Total)           :       97.999981282663 electrons
E(X)               :      -80.055720761288 Eh       
E(C)               :       -4.298035988020 Eh       
E(XC)              :      -84.353756749308 Eh       

---------------
SCF CONVERGENCE
---------------

  Last Energy change         ...   -3.1309e-10  Tolerance :   1.0000e-08
  Last MAX-Density change    ...    1.8432e-05  Tolerance :   1.0000e-07
  Last RMS-Density change    ...    7.7662e-07  Tolerance :   5.0000e-09
  Last DIIS Error            ...    2.6936e-03  Tolerance :   5.0000e-07
  Last Orbital Gradient      ...    7.8097e-06  Tolerance :   1.0000e-05
  Last Orbital Rotation      ...    5.4261e-06  Tolerance :   1.0000e-05


----------------
ORBITAL ENERGIES
----------------

  NO   OCC          E(Eh)            E(eV) 
   0   2.0000     -24.732550      -673.0069 
   1   2.0000     -24.731260      -672.9718 
   2   2.0000     -24.728642      -672.9006 
   3   2.0000     -24.722883      -672.7438 
   4   2.0000     -24.720043      -672.6666 
   5   2.0000     -24.715689      -672.5481 
   6   2.0000     -24.712113      -672.4508 
   7   2.0000     -19.207655      -522.6669 
   8   2.0000     -10.436204      -283.9835 
   9   2.0000     -10.420507      -283.5564 
  10   2.0000     -10.360326      -281.9188 
  11   2.0000     -10.273200      -279.5480 
  12   2.0000      -1.323392       -36.0113 
  13   2.0000      -1.308737       -35.6126 
  14   2.0000      -1.278864       -34.7997 
  15   2.0000      -1.238750       -33.7081 
  16   2.0000      -1.238576       -33.7034 
  17   2.0000      -1.232153       -33.5286 
  18   2.0000      -1.221014       -33.2255 
  19   2.0000      -1.103140       -30.0180 
  20   2.0000      -0.825476       -22.4624 
  21   2.0000      -0.785677       -21.3793 
  22   2.0000      -0.699649       -19.0384 
  23   2.0000      -0.668388       -18.1878 
  24   2.0000      -0.623132       -16.9563 
  25   2.0000      -0.613227       -16.6868 
  26   2.0000      -0.609582       -16.5876 
  27   2.0000      -0.603792       -16.4300 
  28   2.0000      -0.589306       -16.0358 
  29   2.0000      -0.569300       -15.4914 
  30   2.0000      -0.562783       -15.3141 
  31   2.0000      -0.557978       -15.1834 
  32   2.0000      -0.508108       -13.8263 
  33   2.0000      -0.478345       -13.0164 
  34   2.0000      -0.473733       -12.8909 
  35   2.0000      -0.471493       -12.8300 
  36   2.0000      -0.462949       -12.5975 
  37   2.0000      -0.456366       -12.4184 
  38   2.0000      -0.442155       -12.0316 
  39   2.0000      -0.437422       -11.9029 
  40   2.0000      -0.435524       -11.8512 
  41   2.0000      -0.429601       -11.6900 
  42   2.0000      -0.423031       -11.5113 
  43   2.0000      -0.417397       -11.3579 
  44   2.0000      -0.415669       -11.3109 
  45   2.0000      -0.414880       -11.2895 
  46   2.0000      -0.397382       -10.8133 
  47   2.0000      -0.364436        -9.9168 
  48   2.0000      -0.331510        -9.0208 
  49   0.0000       0.042191         1.1481 
  50   0.0000       0.062135         1.6908 
  51   0.0000       0.078864         2.1460 
  52   0.0000       0.095525         2.5994 
  53   0.0000       0.108790         2.9603 
  54   0.0000       0.152948         4.1619 
  55   0.0000       0.189821         5.1653 
  56   0.0000       0.194498         5.2925 
  57   0.0000       0.197401         5.3715 
  58   0.0000       0.199863         5.4385 
  59   0.0000       0.211562         5.7569 
*Only the first 10 virtual orbitals were printed.

                    ********************************
                    * MULLIKEN POPULATION ANALYSIS *
                    ********************************

-----------------------
MULLIKEN ATOMIC CHARGES
-----------------------
   0 F :   -0.294125
   1 F :   -0.303050
   2 F :   -0.308447
   3 F :   -0.298827
   4 F :   -0.292537
   5 F :   -0.297049
   6 F :   -0.290257
   7 O :   -0.498698
   8 C :    0.858129
   9 C :   -0.223542
  10 C :    0.435600
  11 C :    0.937171
  12 H :    0.217006
  13 H :    0.195166
  14 H :    0.163461
Sum of atomic charges:   -0.0000000

--------------------------------
MULLIKEN REDUCED ORBITAL CHARGES
--------------------------------
  0 F s       :     3.987702  s :     3.987702
      pz      :     1.638024  p :     5.288614
      px      :     1.778308
      py      :     1.872282
      dz2     :     0.004402  d :     0.017810
      dxz     :     0.005849
      dyz     :     0.003934
      dx2y2   :     0.001871
      dxy     :     0.001754

  1 F s       :     3.983042  s :     3.983042
      pz      :     1.714833  p :     5.302532
      px      :     1.901265
      py      :     1.686434
      dz2     :     0.003419  d :     0.017476
      dxz     :     0.001950
      dyz     :     0.006454
      dx2y2   :     0.003265
      dxy     :     0.002388

  2 F s       :     3.975864  s :     3.975864
      pz      :     1.898621  p :     5.314778
      px      :     1.506128
      py      :     1.910028
      dz2     :     0.002131  d :     0.017805
      dxz     :     0.004942
      dyz     :     0.000525
      dx2y2   :     0.005995
      dxy     :     0.004211

  3 F s       :     3.973592  s :     3.973592
      pz      :     1.694241  p :     5.307541
      px      :     1.906856
      py      :     1.706443
      dz2     :     0.003971  d :     0.017695
      dxz     :     0.002052
      dyz     :     0.006559
      dx2y2   :     0.003079
      dxy     :     0.002034

  4 F s       :     3.975935  s :     3.975935
      pz      :     1.839861  p :     5.299013
      px      :     1.863529
      py      :     1.595623
      dz2     :     0.002306  d :     0.017589
      dxz     :     0.001610
      dyz     :     0.004694
      dx2y2   :     0.004711
      dxy     :     0.004269

  5 F s       :     3.977093  s :     3.977093
      pz      :     1.688380  p :     5.302464
      px      :     1.738799
      py      :     1.875286
      dz2     :     0.004000  d :     0.017491
      dxz     :     0.005872
      dyz     :     0.002844
      dx2y2   :     0.002491
      dxy     :     0.002285

  6 F s       :     3.975691  s :     3.975691
      pz      :     1.683003  p :     5.296968
      px      :     1.912473
      py      :     1.701492
      dz2     :     0.003634  d :     0.017598
      dxz     :     0.002568
      dyz     :     0.006653
      dx2y2   :     0.002613
      dxy     :     0.002130

  7 O s       :     3.895964  s :     3.895964
      pz      :     1.514322  p :     4.573877
      px      :     1.246285
      py      :     1.813270
      dz2     :     0.006829  d :     0.028858
      dxz     :     0.008530
      dyz     :     0.004589
      dx2y2   :     0.005306
      dxy     :     0.003604

  8 C s       :     2.856691  s :     2.856691
      pz      :     0.621115  p :     2.139101
      px      :     0.710532
      py      :     0.807454
      dz2     :     0.027836  d :     0.146078
      dxz     :     0.030317
      dyz     :     0.033316
      dx2y2   :     0.030270
      dxy     :     0.024339

  9 C s       :     3.243180  s :     3.243180
      pz      :     0.893163  p :     2.916885
      px      :     0.926418
      py      :     1.097304
      dz2     :     0.010596  d :     0.063478
      dxz     :     0.013924
      dyz     :     0.018012
      dx2y2   :     0.014163
      dxy     :     0.006782

 10 C s       :     3.058046  s :     3.058046
      pz      :     0.846149  p :     2.393447
      px      :     0.713306
      py      :     0.833992
      dz2     :     0.019695  d :     0.112907
      dxz     :     0.024904
      dyz     :     0.022136
      dx2y2   :     0.025675
      dxy     :     0.020498

 11 C s       :     2.791025  s :     2.791025
      pz      :     0.638300  p :     2.114541
      px      :     0.844037
      py      :     0.632203
      dz2     :     0.028042  d :     0.157264
      dxz     :     0.030358
      dyz     :     0.040807
      dx2y2   :     0.032962
      dxy     :     0.025095

 12 H s       :     0.782994  s :     0.782994

 13 H s       :     0.804834  s :     0.804834

 14 H s       :     0.836539  s :     0.836539



                     *******************************
                     * LOEWDIN POPULATION ANALYSIS *
                     *******************************

----------------------
LOEWDIN ATOMIC CHARGES
----------------------
   0 F :   -0.074225
   1 F :   -0.094166
   2 F :   -0.113118
   3 F :   -0.109524
   4 F :   -0.090928
   5 F :   -0.089629
   6 F :   -0.088328
   7 O :   -0.191320
   8 C :    0.223115
   9 C :   -0.153657
  10 C :    0.104241
  11 C :    0.252835
  12 H :    0.153966
  13 H :    0.142591
  14 H :    0.128147

-------------------------------
LOEWDIN REDUCED ORBITAL CHARGES
-------------------------------
  0 F s       :     3.740482  s :     3.740482
      pz      :     1.653268  p :     5.299247
      px      :     1.780974
      py      :     1.865005
      dz2     :     0.008512  d :     0.034496
      dxz     :     0.011660
      dyz     :     0.007554
      dx2y2   :     0.003440
      dxy     :     0.003330

  1 F s       :     3.742256  s :     3.742256
      pz      :     1.723370  p :     5.316566
      px      :     1.894780
      py      :     1.698416
      dz2     :     0.006366  d :     0.035345
      dxz     :     0.003970
      dyz     :     0.014367
      dx2y2   :     0.006643
      dxy     :     0.003999

  2 F s       :     3.742750  s :     3.742750
      pz      :     1.893161  p :     5.334658
      px      :     1.540329
      py      :     1.901168
      dz2     :     0.004393  d :     0.035710
      dxz     :     0.009626
      dyz     :     0.000994
      dx2y2   :     0.012712
      dxy     :     0.007986

  3 F s       :     3.744742  s :     3.744742
      pz      :     1.718948  p :     5.329209
      px      :     1.896613
      py      :     1.713648
      dz2     :     0.008309  d :     0.035573
      dxz     :     0.003844
      dyz     :     0.014056
      dx2y2   :     0.005944
      dxy     :     0.003419

  4 F s       :     3.742757  s :     3.742757
      pz      :     1.839249  p :     5.313480
      px      :     1.858748
      py      :     1.615483
      dz2     :     0.003863  d :     0.034692
      dxz     :     0.003026
      dyz     :     0.009547
      dx2y2   :     0.009467
      dxy     :     0.008789

  5 F s       :     3.741069  s :     3.741069
      pz      :     1.697731  p :     5.314146
      px      :     1.745322
      py      :     1.871093
      dz2     :     0.007385  d :     0.034413
      dxz     :     0.012966
      dyz     :     0.005555
      dx2y2   :     0.004598
      dxy     :     0.003908

  6 F s       :     3.742217  s :     3.742217
      pz      :     1.697466  p :     5.311376
      px      :     1.901781
      py      :     1.712129
      dz2     :     0.006321  d :     0.034735
      dxz     :     0.004674
      dyz     :     0.014463
      dx2y2   :     0.005453
      dxy     :     0.003824

  7 O s       :     3.498944  s :     3.498944
      pz      :     1.558140  p :     4.630209
      px      :     1.272001
      py      :     1.800068
      dz2     :     0.013204  d :     0.062166
      dxz     :     0.018976
      dyz     :     0.007705
      dx2y2   :     0.014139
      dxy     :     0.008142

  8 C s       :     2.843620  s :     2.843620
      pz      :     0.805636  p :     2.591731
      px      :     0.855470
      py      :     0.930625
      dz2     :     0.063074  d :     0.341534
      dxz     :     0.070314
      dyz     :     0.083501
      dx2y2   :     0.073385
      dxy     :     0.051260

  9 C s       :     2.946197  s :     2.946197
      pz      :     0.977580  p :     3.071811
      px      :     0.973291
      py      :     1.120940
      dz2     :     0.023596  d :     0.135649
      dxz     :     0.031744
      dyz     :     0.036475
      dx2y2   :     0.030610
      dxy     :     0.013224

 10 C s       :     2.910211  s :     2.910211
      pz      :     0.947714  p :     2.718399
      px      :     0.833205
      py      :     0.937480
      dz2     :     0.045548  d :     0.267149
      dxz     :     0.055732
      dyz     :     0.055773
      dx2y2   :     0.062887
      dxy     :     0.047210

 11 C s       :     2.834369  s :     2.834369
      pz      :     0.800303  p :     2.541011
      px      :     0.954623
      py      :     0.786085
      dz2     :     0.062698  d :     0.371785
      dxz     :     0.073537
      dyz     :     0.100260
      dx2y2   :     0.082270
      dxy     :     0.053020

 12 H s       :     0.846034  s :     0.846034

 13 H s       :     0.857409  s :     0.857409

 14 H s       :     0.871853  s :     0.871853



                      *****************************
                      * MAYER POPULATION ANALYSIS *
                      *****************************

  NA   - Mulliken gross atomic population
  ZA   - Total nuclear charge
  QA   - Mulliken gross atomic charge
  VA   - Mayer's total valence
  BVA  - Mayer's bonded valence
  FA   - Mayer's free valence

  ATOM       NA         ZA         QA         VA         BVA        FA
  0 F      9.2941     9.0000    -0.2941     1.0647     1.0647     0.0000
  1 F      9.3030     9.0000    -0.3030     1.0385     1.0385     0.0000
  2 F      9.3084     9.0000    -0.3084     1.0320     1.0320    -0.0000
  3 F      9.2988     9.0000    -0.2988     1.0361     1.0361    -0.0000
  4 F      9.2925     9.0000    -0.2925     1.0631     1.0631    -0.0000
  5 F      9.2970     9.0000    -0.2970     1.0594     1.0594    -0.0000
  6 F      9.2903     9.0000    -0.2903     1.0637     1.0637    -0.0000
  7 O      8.4987     8.0000    -0.4987     1.9122     1.9122     0.0000
  8 C      5.1419     6.0000     0.8581     3.8161     3.8161    -0.0000
  9 C      6.2235     6.0000    -0.2235     3.7664     3.7664    -0.0000
 10 C      5.5644     6.0000     0.4356     3.7982     3.7982    -0.0000
 11 C      5.0628     6.0000     0.9372     3.9404     3.9404    -0.0000
 12 H      0.7830     1.0000     0.2170     0.9149     0.9149    -0.0000
 13 H      0.8048     1.0000     0.1952     0.9136     0.9136    -0.0000
 14 H      0.8365     1.0000     0.1635     0.9248     0.9248    -0.0000

  Mayer bond orders larger than 0.100000
B(  0-F ,  8-C ) :   0.9726 B(  1-F ,  8-C ) :   0.9332 B(  2-F , 10-C ) :   0.9496 
B(  3-F , 10-C ) :   0.9574 B(  4-F , 11-C ) :   0.9919 B(  5-F , 11-C ) :   0.9691 
B(  6-F , 11-C ) :   0.9899 B(  7-O ,  8-C ) :   0.9343 B(  7-O ,  9-C ) :   0.8865 
B(  8-C , 10-C ) :   0.8912 B(  9-C , 11-C ) :   0.9737 B(  9-C , 12-H ) :   0.8918 
B(  9-C , 13-H ) :   0.8904 B( 10-C , 14-H ) :   0.9023 

-------
TIMINGS
-------

Total SCF time: 0 days 0 hours 0 min 30 sec 

Total time                  ....      30.860 sec
Sum of individual times     ....      29.206 sec  ( 94.6%)

SCF preparation             ....       0.060 sec  (  0.2%)
Fock matrix formation       ....      29.071 sec  ( 94.2%)
  Startup                   ....       0.001 sec  (  0.0% of F)
  Split-RI-J                ....       2.585 sec  (  8.9% of F)
  Chain of spheres X        ....      23.753 sec  ( 81.7% of F)
  XC integration            ....       4.300 sec  ( 14.8% of F)
    XC Preparation          ....       0.000 sec  (  0.0% of XC)
    Basis function eval.    ....       1.687 sec  ( 39.2% of XC)
    Density eval.           ....       1.029 sec  ( 23.9% of XC)
    XC-Functional eval.     ....       0.394 sec  (  9.2% of XC)
    XC-Potential eval.      ....       1.050 sec  ( 24.4% of XC)
Diagonalization             ....       0.000 sec  (  0.0%)
Density matrix formation    ....       0.011 sec  (  0.0%)
Total Energy calculation    ....       0.001 sec  (  0.0%)
Population analysis         ....       0.003 sec  (  0.0%)
Orbital Transformation      ....       0.007 sec  (  0.0%)
Orbital Orthonormalization  ....       0.000 sec  (  0.0%)
DIIS solution               ....       0.029 sec  (  0.1%)
SOSCF solution              ....       0.023 sec  (  0.1%)
Finished LeanSCF after  30.9 sec

Maximum memory used throughout the entire LEANSCF-calculation: 21.2 MB

------------------------------------------------------------------------------
                         ORCA PROPERTY INTEGRAL CALCULATIONS
------------------------------------------------------------------------------

GBWName                                   ... HFE_347pcf2_gauche1.gbw
Number of atoms                           ...     15
Number of basis functions                 ...    174
Max core memory                           ...   4096 MB

Dipole integrals                          ... YES
Quadrupole integrals                      ...  NO
Linear momentum integrals                 ...  NO
Angular momentum integrals                ...  NO
Higher moments length integrals           ...  NO
Higher moments velocity integrals         ...  NO
Kinetic energy integrals                  ...  NO
GIAO right hand sides                     ...  NO
GIAO dipole derivative integrals          ...  NO
SOC integrals                             ...  NO
EPR diamagnetic integrals (GIAO)          ...  NO
EPR gauge integrals                       ...  NO
Field gradient integrals                  ...  NO (   0 nuclei)
Spin-dipole/Fermi contact integrals       ...  NO (   0 nuclei)
Contact density integrals                 ...  NO (   0 nuclei)
Nucleus-orbit integrals                   ...  NO (   0 nuclei)
Geometric perturbations                   ...  NO (  15 nuclei)

Choice of electric origin   ... Center of mass
Position of electric origin ... (  0.0036, -0.0093, -0.0132) 
Choice of magnetic origin   ... GIAO
Position of magnetic origin ... (  0.0000,  0.0000,  0.0000) 

Calculating integrals                     ... Electric Dipole (Length)     done (  0.0 sec)

Property integrals calculated in   0.0 sec

Maximum memory used throughout the entire PROPINT-calculation: 12.5 MB

-------------------------   --------------------
FINAL SINGLE POINT ENERGY      -927.971872975838
-------------------------   --------------------

------------------------------------------------------------------------------
                         ORCA SCF GRADIENT CALCULATION
------------------------------------------------------------------------------

Nuc. rep. gradient        (SHARK) ... done (  0.0 sec)
HCore & Overlap gradient  (SHARK) ... done (  0.1 sec)
Split-RIJ-J gradient      (SHARK) ... done (  0.9 sec)
done ( 16.7 sec)
XC gradient                       ... done (  2.9 sec)

------------------
CARTESIAN GRADIENT
------------------

   1   F   :    0.017803758    0.005933149   -0.012531116
   2   F   :   -0.001757401    0.003258182   -0.000160339
   3   F   :   -0.001289768   -0.006459128   -0.000607837
   4   F   :    0.007365958   -0.003932680   -0.000186512
   5   F   :   -0.001441037    0.007270577   -0.003300506
   6   F   :   -0.009253566   -0.000894156    0.002795244
   7   F   :   -0.000664664   -0.005088493   -0.007669762
   8   O   :   -0.027209384   -0.003306222   -0.003176690
   9   C   :    0.025986062   -0.010690056    0.019695906
  10   C   :   -0.003255101   -0.000805808   -0.004408585
  11   C   :   -0.027945655    0.022494926   -0.005270047
  12   C   :    0.012851327   -0.007875851    0.016736860
  13   H   :    0.003267464    0.001016923   -0.000629533
  14   H   :    0.000880570    0.001725880   -0.001204590
  15   H   :    0.004661438   -0.002647245   -0.000082494

Difference to translation invariance:
           :    0.0000000001    0.0000000001   -0.0000000002

Difference to rotation invariance:
           :    0.0000015507   -0.0005639311    0.0006766868

Norm of the Cartesian gradient     ...    0.0686973958
RMS gradient                       ...    0.0102408031
MAX gradient                       ...    0.0279456548

-------
TIMINGS
-------

Total SCF gradient time     ....       20.695 sec

Densities                   ....       0.000 sec  (  0.0%)
One electron gradient       ....       0.131 sec  (  0.6%)
RI-J Coulomb gradient       ....       0.931 sec  (  4.5%)
COSX gradient               ....      16.720 sec  ( 80.8%)
XC gradient                 ....       2.913 sec  ( 14.1%)

Maximum memory used throughout the entire SCFGRAD-calculation: 25.0 MB
------------------------------------------------------------------------------
                         ORCA GEOMETRY RELAXATION STEP
------------------------------------------------------------------------------

Reading the OPT-File                    .... done
Getting information on internals        .... done
Copying old internal coords+grads       .... done
Making the new internal coordinates     .... (2022 redundants) done
Validating the new internal coordinates .... (2022 redundants) done
Calculating the B-matrix                .... done
Calculating the G,G- and P matrices     .... done
Transforming gradient to internals      .... done
Projecting the internal gradient        .... done
Number of atoms                         ....  15
Number of internal coordinates          ....  57
Current Energy                          ....  -927.971872976 Eh
Current gradient norm                   ....     0.068697396 Eh/bohr
Maximum allowed component of the step   ....  0.300
Current trust radius                    ....  0.300
Evaluating the initial hessian          ....  (Almloef) done
Projecting the Hessian                  .... done
Forming the augmented Hessian           .... done
Diagonalizing the augmented Hessian     .... done
Last element of RFO vector              ....  0.965362048
Lowest eigenvalues of augmented Hessian:
 -0.011412060  0.013130405  0.013474218  0.019697776  0.020734670
Length of the computed step             ....  0.270275802
The final length of the internal step   ....  0.270275802
Converting the step to Cartesian space:
 Initial RMS(Int)=    0.0357989045
Transforming coordinates:
 Iter   0:  RMS(Cart)=    0.1439082793 RMS(Int)=    0.8231521996
 Iter   5:  RMS(Cart)=    0.0000016390 RMS(Int)=    0.0000011812
done
Storing new coordinates                 .... done

                                .--------------------.
          ----------------------|Geometry convergence|-------------------------
          Item                value                   Tolerance       Converged
          ---------------------------------------------------------------------
          RMS gradient        0.0085253262            0.0001000000      NO
          MAX gradient        0.0263248900            0.0003000000      NO
          RMS step            0.0357989045            0.0020000000      NO
          MAX step            0.1040511204            0.0040000000      NO
          -------------------------------------------------------------------------
          ........................................................
          Max(Bonds)      0.0257      Max(Angles)    4.06
          Max(Dihed)        5.96      Max(Improp)    0.00
          ---------------------------------------------------------------------

The optimization has not yet converged - more geometry cycles are needed


    ---------------------------------------------------------------------------
                         Redundant Internal Coordinates
                            (Angstroem and degrees)

        Definition                    Value    dE/dq     Step     New-Value
    ----------------------------------------------------------------------------
     1. B(C   8,F   1)                1.3540  0.002078 -0.0018    1.3522   
     2. B(C   8,O   7)                1.4217  0.024786 -0.0257    1.3960   
     3. B(C   8,F   0)                1.3550  0.021206 -0.0186    1.3364   
     4. B(C   9,O   7)                1.4208  0.001663 -0.0017    1.4190   
     5. B(C  10,F   3)                1.3555  0.002609 -0.0023    1.3532   
     6. B(C  10,C   8)                1.5053 -0.016468  0.0207    1.5260   
     7. B(C  10,F   2)                1.3560 -0.002100  0.0019    1.3579   
     8. B(C  11,F   6)                1.3498  0.009057 -0.0078    1.3420   
     9. B(C  11,F   5)                1.3498  0.008038 -0.0069    1.3429   
    10. B(C  11,C   9)                1.5066 -0.003591  0.0045    1.5112   
    11. B(C  11,F   4)                1.3510  0.008017 -0.0069    1.3440   
    12. B(H  12,C   9)                1.0950  0.000363 -0.0005    1.0945   
    13. B(H  13,C   9)                1.0918 -0.001757  0.0025    1.0943   
    14. B(H  14,C  10)                1.0900 -0.001290  0.0018    1.0919   
    15. A(C   8,O   7,C   9)          112.55 -0.024710    3.47    116.02   
    16. A(F   1,C   8,C  10)          110.06  0.008239   -0.57    109.49   
    17. A(F   1,C   8,O   7)          109.61  0.001964    0.55    110.16   
    18. A(O   7,C   8,C  10)          110.34 -0.026325    4.06    114.41   
    19. A(F   0,C   8,C  10)          109.67  0.002317   -0.72    108.96   
    20. A(F   0,C   8,F   1)          107.97 -0.003538   -0.11    107.86   
    21. A(F   0,C   8,O   7)          109.14  0.018008   -3.34    105.80   
    22. A(H  12,C   9,H  13)          109.44  0.000401    0.25    109.70   
    23. A(C  11,C   9,H  13)          106.23 -0.002836    0.43    106.66   
    24. A(O   7,C   9,H  13)          111.94 -0.003447    0.75    112.69   
    25. A(C  11,C   9,H  12)          109.94  0.002139   -0.75    109.19   
    26. A(O   7,C   9,H  12)          110.13 -0.005404    0.82    110.95   
    27. A(O   7,C   9,C  11)          109.08  0.009432   -1.55    107.52   
    28. A(F   3,C  10,H  14)          109.04 -0.003282    0.27    109.31   
    29. A(F   2,C  10,H  14)          106.07 -0.007134    0.89    106.96   
    30. A(F   2,C  10,F   3)          106.81 -0.009616    1.84    108.65   
    31. A(F   3,C  10,C   8)          109.52  0.007210   -0.87    108.64   
    32. A(C   8,C  10,H  14)          115.35  0.004630   -1.07    114.28   
    33. A(F   2,C  10,C   8)          109.69  0.006574   -0.77    108.92   
    34. A(F   4,C  11,C   9)          110.61 -0.006619    0.93    111.54   
    35. A(F   5,C  11,F   6)          108.10  0.000984   -0.11    107.98   
    36. A(F   4,C  11,F   6)          107.71 -0.003914    0.54    108.25   
    37. A(F   4,C  11,F   5)          107.74 -0.002909    0.37    108.11   
    38. A(F   6,C  11,C   9)          111.26 -0.000465    0.08    111.35   
    39. A(F   5,C  11,C   9)          111.27  0.012499   -1.75    109.51   
    40. D(F   1,C   8,O   7,C   9)    -61.36  0.001551    3.70    -57.65   
    41. D(F   0,C   8,O   7,C   9)   -179.42 -0.005912    5.48   -173.93   
    42. D(C  10,C   8,O   7,C   9)     60.00 -0.003841    5.96     65.97   
    43. D(H  13,C   9,O   7,C   8)    -62.07  0.003927   -3.98    -66.05   
    44. D(H  12,C   9,O   7,C   8)     59.92 -0.001724   -2.57     57.35   
    45. D(C  11,C   9,O   7,C   8)   -179.34  0.003522   -3.97   -183.31   
    46. D(F   2,C  10,C   8,F   0)     58.29 -0.002489   -1.39     56.89   
    47. D(F   3,C  10,C   8,O   7)     61.63  0.008343   -4.70     56.93   
    48. D(F   3,C  10,C   8,F   1)   -177.28 -0.000934   -1.75   -179.03   
    49. D(F   3,C  10,C   8,F   0)    -58.63  0.001146   -2.67    -61.30   
    50. D(F   2,C  10,C   8,O   7)    178.55  0.004707   -3.43    175.12   
    51. D(F   2,C  10,C   8,F   1)    -60.36 -0.004570   -0.48    -60.84   
    52. D(F   4,C  11,C   9,H  13)    179.61  0.000340   -0.25    179.36   
    53. D(F   4,C  11,C   9,H  12)     61.29  0.000353   -0.40     60.89   
    54. D(F   4,C  11,C   9,O   7)    -59.56 -0.000254    0.04    -59.52   
    55. D(F   5,C  11,C   9,H  13)     59.90  0.000196   -0.19     59.71   
    56. D(F   5,C  11,C   9,H  12)    -58.42  0.000209   -0.34    -58.76   
    57. D(F   5,C  11,C   9,O   7)   -179.28 -0.000398    0.10   -179.18   
    ----------------------------------------------------------------------------

Geometry step timings:
Preparation and reading OPT file:      0.000 s ( 1.617 %)
Internal coordinates            :      0.000 s ( 3.638 %)
B/P matrices and projection     :      0.000 s (33.064 %)
Hessian update/contruction      :      0.000 s (13.905 %)
Making the step                 :      0.000 s (24.737 %)
Converting the step to Cartesian:      0.000 s ( 5.174 %)
Storing new data                :      0.000 s ( 2.102 %)
Checking convergence            :      0.000 s ( 1.374 %)
Final printing                  :      0.000 s (14.309 %)
Total time                      :      0.001 s

Time for energy+gradient        :     53.246 s
Time for complete geometry iter :     53.271 s

         *************************************************************
         *                GEOMETRY OPTIMIZATION CYCLE   2            *
         *************************************************************
---------------------------------
CARTESIAN COORDINATES (ANGSTROEM)
---------------------------------
  F      1.893228    0.950103   -1.190531
  F      1.379862    1.491383    0.850412
  F      3.285018   -0.466939    0.624222
  F      1.877749   -1.694418   -0.543272
  F     -2.705607    1.110238   -0.517127
  F     -3.219079   -0.354280    1.007313
  F     -2.432115   -1.013402   -0.906450
  O     -0.061171    0.339657   -0.442478
  C      1.276147    0.521045   -0.085552
  C     -0.948301    0.008939    0.614545
  C      1.972141   -0.742036    0.413387
  C     -2.341811   -0.060383    0.034013
  H     -0.923088    0.771528    1.399203
  H     -0.739904   -0.973761    1.048594
  H      1.574030   -1.132774    1.352022

----------------------------
CARTESIAN COORDINATES (A.U.)
----------------------------
  NO LB      ZA    FRAG     MASS         X           Y           Z
   0 F     9.0000    0    18.998    3.577682    1.795434   -2.249777
   1 F     9.0000    0    18.998    2.607562    2.818305    1.607046
   2 F     9.0000    0    18.998    6.207784   -0.882386    1.179609
   3 F     9.0000    0    18.998    3.548432   -3.201985   -1.026636
   4 F     9.0000    0    18.998   -5.112856    2.098047   -0.977229
   5 F     9.0000    0    18.998   -6.083177   -0.669492    1.903546
   6 F     9.0000    0    18.998   -4.596031   -1.915053   -1.712942
   7 O     8.0000    0    15.999   -0.115596    0.641859   -0.836163
   8 C     6.0000    0    12.011    2.411569    0.984633   -0.161670
   9 C     6.0000    0    12.011   -1.792030    0.016892    1.161321
  10 C     6.0000    0    12.011    3.726807   -1.402245    0.781187
  11 C     6.0000    0    12.011   -4.425382   -0.114108    0.064275
  12 H     1.0000    0     1.008   -1.744384    1.457977    2.644111
  13 H     1.0000    0     1.008   -1.398217   -1.840142    1.981556
  14 H     1.0000    0     1.008    2.974486   -2.140633    2.554951

--------------------------------
INTERNAL COORDINATES (ANGSTROEM)
--------------------------------
 F      0   0   0     0.000000000000     0.00000000     0.00000000
 F      1   0   0     2.173010999012     0.00000000     0.00000000
 F      1   2   0     2.690430134751    67.65903743     0.00000000
 F      3   1   2     2.202306326664    66.76019460   113.27217555
 F      2   1   3     4.325100691372    84.50470785   227.74420245
 F      5   2   1     2.175404680351    93.48070365   123.75407080
 F      6   5   2     2.171691375185    60.08328152   270.43953094
 O      1   2   3     2.179885583813    62.33122385   108.60494083
 C      1   2   3     1.336359362455    36.32026095    70.63072837
 C      8   1   2     1.419039374847   151.80889631   335.25610900
 C      4   3   1     1.353194848112    35.74523139   289.36557511
 C      7   6   5     1.341965074363    36.02784021    37.17186246
 H     10   8   1     1.094471243210   110.93093397    49.83163967
 H     10   8   1     1.094315972401   112.68627589   286.40333159
 H     11   4   3     1.091881145078   109.29587611   243.62768238

---------------------------
INTERNAL COORDINATES (A.U.)
---------------------------
 F      0   0   0     0.000000000000     0.00000000     0.00000000
 F      1   0   0     4.106395674132     0.00000000     0.00000000
 F      1   2   0     5.084176137129    67.65903743     0.00000000
 F      3   1   2     4.161755820396    66.76019460   113.27217555
 F      2   1   3     8.173255808327    84.50470785   227.74420245
 F      5   2   1     4.110919076313    93.48070365   123.75407080
 F      6   5   2     4.103901946498    60.08328152   270.43953094
 O      1   2   3     4.119386756690    62.33122385   108.60494083
 C      1   2   3     2.525353211541    36.32026095    70.63072837
 C      8   1   2     2.681595791711   151.80889631   335.25610900
 C      4   3   1     2.557167668764    35.74523139   289.36557511
 C      7   6   5     2.535946471834    36.02784021    37.17186246
 H     10   8   1     2.068250911119   110.93093397    49.83163967
 H     10   8   1     2.067957491815   112.68627589   286.40333159
 H     11   4   3     2.063356334990   109.29587611   243.62768238

------------------------------------------------------------------------------
                   ___                                                        
                  /   \      - P O W E R E D   B Y -                         
                 /     \                                                     
                 |  |  |   _    _      __       _____    __    __             
                 |  |  |  | |  | |    /  \     |  _  \  |  |  /  |          
                  \  \/   | |  | |   /    \    | | | |  |  | /  /          
                 / \  \   | |__| |  /  /\  \   | |_| |  |  |/  /          
                |  |  |   |  __  | /  /__\  \  |    /   |      \           
                |  |  |   | |  | | |   __   |  |    \   |  |\   \          
                \     /   | |  | | |  |  |  |  | |\  \  |  | \   \       
                 \___/    |_|  |_| |__|  |__|  |_| \__\ |__|  \__/        
                                                                              
                      - O R C A' S   B I G   F R I E N D -                    
[...]
  (1) The electronic state is orbitally nondegenerate
  (2) There are no thermally accessible electronically excited states
  (3) Hindered rotations indicated by low frequency modes are not
      treated as such but are treated as vibrations and this may
      cause some error
  (4) All equations used are the standard statistical mechanics
      equations for an ideal gas
  (5) All vibrations are strictly harmonic

freq.      22.71  E(vib)   ...       0.60 
freq.      34.61  E(vib)   ...       0.59 
freq.      63.99  E(vib)   ...       0.55 
freq.      88.08  E(vib)   ...       0.52 
freq.     149.52  E(vib)   ...       0.45 
freq.     180.10  E(vib)   ...       0.41 
freq.     234.82  E(vib)   ...       0.36 
freq.     258.20  E(vib)   ...       0.34 
freq.     326.42  E(vib)   ...       0.28 
freq.     359.20  E(vib)   ...       0.25 
freq.     376.03  E(vib)   ...       0.24 
freq.     419.46  E(vib)   ...       0.21 
freq.     513.08  E(vib)   ...       0.16 
freq.     530.62  E(vib)   ...       0.15 
freq.     557.83  E(vib)   ...       0.14 
freq.     584.41  E(vib)   ...       0.13 
freq.     596.42  E(vib)   ...       0.13 
freq.     662.25  E(vib)   ...       0.10 
freq.     741.29  E(vib)   ...       0.08 
freq.     867.69  E(vib)   ...       0.05 
freq.     877.34  E(vib)   ...       0.05 
freq.    1003.95  E(vib)   ...       0.03 
freq.    1123.95  E(vib)   ...       0.02 
freq.    1152.15  E(vib)   ...       0.02 
freq.    1170.26  E(vib)   ...       0.02 
freq.    1196.85  E(vib)   ...       0.02 
freq.    1219.40  E(vib)   ...       0.01 
freq.    1227.07  E(vib)   ...       0.01 
freq.    1256.61  E(vib)   ...       0.01 
freq.    1332.38  E(vib)   ...       0.01 
freq.    1342.89  E(vib)   ...       0.01 
freq.    1357.74  E(vib)   ...       0.01 
freq.    1414.84  E(vib)   ...       0.01 
freq.    1453.48  E(vib)   ...       0.01 
freq.    1467.05  E(vib)   ...       0.01 
freq.    1524.18  E(vib)   ...       0.00 
freq.    3080.57  E(vib)   ...       0.00 
freq.    3107.03  E(vib)   ...       0.00 
freq.    3145.75  E(vib)   ...       0.00 

------------
INNER ENERGY
------------

The inner energy is: U= E(el) + E(ZPE) + E(vib) + E(rot) + E(trans)
    E(el)   - is the total energy from the electronic structure calculation
              = E(kin-el) + E(nuc-el) + E(el-el) + E(nuc-nuc)
    E(ZPE)  - the the zero temperature vibrational energy from the frequency calculation
    E(vib)  - the the finite temperature correction to E(ZPE) due to population
              of excited vibrational states
    E(rot)  - is the rotational thermal energy
    E(trans)- is the translational thermal energy

Summary of contributions to the inner energy U:
Electronic energy                ...   -927.98018204 Eh
Zero point energy                ...      0.08433828 Eh      52.92 kcal/mol
Thermal vibrational correction   ...      0.00955323 Eh       5.99 kcal/mol
Thermal rotational correction    ...      0.00152006 Eh       0.95 kcal/mol
Thermal translational correction ...      0.00152006 Eh       0.95 kcal/mol
-----------------------------------------------------------------------
Total thermal energy                   -927.88325041 Eh


Summary of corrections to the electronic energy:
(perhaps to be used in another calculation)
Total thermal correction                  0.01259335 Eh       7.90 kcal/mol
Non-thermal (ZPE) correction              0.08433828 Eh      52.92 kcal/mol
-----------------------------------------------------------------------
Total correction                          0.09693163 Eh      60.83 kcal/mol


--------
ENTHALPY
--------

The enthalpy is H = U + kB*T
                kB is Boltzmann's constant
Total thermal energy              ...   -927.88325041 Eh 
Thermal Enthalpy correction       ...      0.00101341 Eh       0.64 kcal/mol
-----------------------------------------------------------------------
Total Enthalpy                    ...   -927.88223700 Eh


Note: Only C1 symmetry has been detected, increase convergence thresholds 
      if your molecule has a higher symmetry. Symmetry factor of 1.0 is   
      used for the rotational entropy correction. 
 

Note: Rotational entropy computed according to Herzberg 
Infrared and Raman Spectra, Chapter V,1, Van Nostrand Reinhold, 1945 
Point Group:  C1, Symmetry Number:   1  
Rotational constants in cm-1:     0.059883     0.015779     0.014773 

Vibrational entropy computed according to the QRRHO of S. Grimme
Chem.Eur.J. 2012 18 9955 using a reference frequency of 100.0 cm-1


-------
ENTROPY
-------

The entropy contributions are T*S = T*(S(el)+S(vib)+S(rot)+S(trans))
     S(el)   - electronic entropy
     S(vib)  - vibrational entropy
     S(rot)  - rotational entropy
     S(trans)- translational entropy
The entropies will be listed as multiplied by the temperature to get
units of energy

Electronic entropy                ...      0.00000000 Eh      0.00 kcal/mol
Vibrational entropy               ...      0.01735184 Eh     10.89 kcal/mol
Rotational entropy                ...      0.01597981 Eh     10.03 kcal/mol
Translational entropy             ...      0.02148743 Eh     13.48 kcal/mol
-----------------------------------------------------------------------
Final entropy term                ...      0.05481908 Eh     34.40 kcal/mol

In case the symmetry of your molecule has not been determined correctly
or in case you have a reason to use a different symmetry number we print 
out the resulting rotational entropy values for sn=1,12:

 non-linear molecules -----------------------------------
|  sn= 1 | S(rot)=       0.01597981 Eh     10.03 kcal/mol|
|  sn= 2 | S(rot)=       0.01527740 Eh      9.59 kcal/mol|
|  sn= 3 | S(rot)=       0.01486651 Eh      9.33 kcal/mol|
|  sn= 4 | S(rot)=       0.01457498 Eh      9.15 kcal/mol|
|  sn= 5 | S(rot)=       0.01434885 Eh      9.00 kcal/mol|
|  sn= 6 | S(rot)=       0.01416409 Eh      8.89 kcal/mol|
|  sn= 7 | S(rot)=       0.01400788 Eh      8.79 kcal/mol|
|  sn= 8 | S(rot)=       0.01387256 Eh      8.71 kcal/mol|
|  sn= 9 | S(rot)=       0.01375320 Eh      8.63 kcal/mol|
|  sn=10 | S(rot)=       0.01364643 Eh      8.56 kcal/mol|
|  sn=11 | S(rot)=       0.01354985 Eh      8.50 kcal/mol|
|  sn=12 | S(rot)=       0.01346167 Eh      8.45 kcal/mol|
 linear molecules ---------------------------------------
|  Dinfh | S(rot)=       0.01005915 Eh      6.31 kcal/mol|
|  Cinfv | S(rot)=       0.01076156 Eh      6.75 kcal/mol|
 --------------------------------------------------------


-------------------
GIBBS FREE ENERGY
-------------------

The Gibbs free energy is G = H - T*S

Total enthalpy                    ...   -927.88223700 Eh 
Total entropy correction          ...     -0.05481908 Eh    -34.40 kcal/mol
-----------------------------------------------------------------------
Final Gibbs free energy         ...   -927.93705609 Eh

For completeness - the Gibbs free energy minus the electronic energy
G-E(el)                           ...      0.04312595 Eh     27.06 kcal/mol


The first frequency considered to be a vibration is 6
The total number of vibrations considered is 39


--------------------------
THERMOCHEMISTRY AT 340.00K
--------------------------

Temperature         ...   340.00 K
Pressure            ...     1.00 atm
Total Mass          ...   200.05 AMU
Quasi RRHO          ...     True
Cut-Off Frequency   ...     1.00 cm^-1

Throughout the following assumptions are being made:
  (1) The electronic state is orbitally nondegenerate
  (2) There are no thermally accessible electronically excited states
  (3) Hindered rotations indicated by low frequency modes are not
      treated as such but are treated as vibrations and this may
      cause some error
  (4) All equations used are the standard statistical mechanics
      equations for an ideal gas
  (5) All vibrations are strictly harmonic

freq.      22.71  E(vib)   ...       0.64 
freq.      34.61  E(vib)   ...       0.63 
freq.      63.99  E(vib)   ...       0.59 
freq.      88.08  E(vib)   ...       0.56 
freq.     149.52  E(vib)   ...       0.48 
freq.     180.10  E(vib)   ...       0.45 
freq.     234.82  E(vib)   ...       0.39 
freq.     258.20  E(vib)   ...       0.37 
freq.     326.42  E(vib)   ...       0.31 
freq.     359.20  E(vib)   ...       0.29 
freq.     376.03  E(vib)   ...       0.27 
freq.     419.46  E(vib)   ...       0.24 
freq.     513.08  E(vib)   ...       0.19 
freq.     530.62  E(vib)   ...       0.18 
freq.     557.83  E(vib)   ...       0.17 
freq.     584.41  E(vib)   ...       0.15 
freq.     596.42  E(vib)   ...       0.15 
freq.     662.25  E(vib)   ...       0.12 
freq.     741.29  E(vib)   ...       0.10 
freq.     867.69  E(vib)   ...       0.06 
freq.     877.34  E(vib)   ...       0.06 
freq.    1003.95  E(vib)   ...       0.04 
freq.    1123.95  E(vib)   ...       0.03 
freq.    1152.15  E(vib)   ...       0.03 
freq.    1170.26  E(vib)   ...       0.02 
freq.    1196.85  E(vib)   ...       0.02 
freq.    1219.40  E(vib)   ...       0.02 
freq.    1227.07  E(vib)   ...       0.02 
freq.    1256.61  E(vib)   ...       0.02 
freq.    1332.38  E(vib)   ...       0.01 
freq.    1342.89  E(vib)   ...       0.01 
freq.    1357.74  E(vib)   ...       0.01 
freq.    1414.84  E(vib)   ...       0.01 
freq.    1453.48  E(vib)   ...       0.01 
freq.    1467.05  E(vib)   ...       0.01 
freq.    1524.18  E(vib)   ...       0.01 
freq.    3080.57  E(vib)   ...       0.00 
freq.    3107.03  E(vib)   ...       0.00 
freq.    3145.75  E(vib)   ...       0.00 

------------
INNER ENERGY
------------

The inner energy is: U= E(el) + E(ZPE) + E(vib) + E(rot) + E(trans)
    E(el)   - is the total energy from the electronic structure calculation
              = E(kin-el) + E(nuc-el) + E(el-el) + E(nuc-nuc)
    E(ZPE)  - the the zero temperature vibrational energy from the frequency calculation
    E(vib)  - the the finite temperature correction to E(ZPE) due to population
              of excited vibrational states
    E(rot)  - is the rotational thermal energy
    E(trans)- is the translational thermal energy

Summary of contributions to the inner energy U:
Electronic energy                ...   -927.98018204 Eh
Zero point energy                ...      0.08433828 Eh      52.92 kcal/mol
Thermal vibrational correction   ...      0.01066784 Eh       6.69 kcal/mol
Thermal rotational correction    ...      0.00161507 Eh       1.01 kcal/mol
Thermal translational correction ...      0.00161507 Eh       1.01 kcal/mol
-----------------------------------------------------------------------
Total thermal energy                   -927.88194579 Eh


Summary of corrections to the electronic energy:
(perhaps to be used in another calculation)
Total thermal correction                  0.01389797 Eh       8.72 kcal/mol
Non-thermal (ZPE) correction              0.08433828 Eh      52.92 kcal/mol
-----------------------------------------------------------------------
Total correction                          0.09823625 Eh      61.64 kcal/mol


--------
ENTHALPY
--------

The enthalpy is H = U + kB*T
                kB is Boltzmann's constant
Total thermal energy              ...   -927.88194579 Eh 
Thermal Enthalpy correction       ...      0.00107674 Eh       0.68 kcal/mol
-----------------------------------------------------------------------
Total Enthalpy                    ...   -927.88086904 Eh


Note: Only C1 symmetry has been detected, increase convergence thresholds 
      if your molecule has a higher symmetry. Symmetry factor of 1.0 is   
      used for the rotational entropy correction. 
 

Note: Rotational entropy computed according to Herzberg 
Infrared and Raman Spectra, Chapter V,1, Van Nostrand Reinhold, 1945 
Point Group:  C1, Symmetry Number:   1  
Rotational constants in cm-1:     0.059883     0.015779     0.014773 

Vibrational entropy computed according to the QRRHO of S. Grimme
Chem.Eur.J. 2012 18 9955 using a reference frequency of 100.0 cm-1


-------
ENTROPY
-------

The entropy contributions are T*S = T*(S(el)+S(vib)+S(rot)+S(trans))
     S(el)   - electronic entropy
     S(vib)  - vibrational entropy
     S(rot)  - rotational entropy
     S(trans)- translational entropy
The entropies will be listed as multiplied by the temperature to get
units of energy

Electronic entropy                ...      0.00000000 Eh      0.00 kcal/mol
Vibrational entropy               ...      0.01946318 Eh     12.21 kcal/mol
Rotational entropy                ...      0.01707646 Eh     10.72 kcal/mol
Translational entropy             ...      0.02299358 Eh     14.43 kcal/mol
-----------------------------------------------------------------------
Final entropy term                ...      0.05953323 Eh     37.36 kcal/mol

In case the symmetry of your molecule has not been determined correctly
or in case you have a reason to use a different symmetry number we print 
out the resulting rotational entropy values for sn=1,12:

 non-linear molecules -----------------------------------
|  sn= 1 | S(rot)=       0.01707646 Eh     10.72 kcal/mol|
|  sn= 2 | S(rot)=       0.01633015 Eh     10.25 kcal/mol|
|  sn= 3 | S(rot)=       0.01589358 Eh      9.97 kcal/mol|
|  sn= 4 | S(rot)=       0.01558383 Eh      9.78 kcal/mol|
|  sn= 5 | S(rot)=       0.01534356 Eh      9.63 kcal/mol|
|  sn= 6 | S(rot)=       0.01514726 Eh      9.51 kcal/mol|
|  sn= 7 | S(rot)=       0.01498128 Eh      9.40 kcal/mol|
|  sn= 8 | S(rot)=       0.01483751 Eh      9.31 kcal/mol|
|  sn= 9 | S(rot)=       0.01471069 Eh      9.23 kcal/mol|
|  sn=10 | S(rot)=       0.01459724 Eh      9.16 kcal/mol|
|  sn=11 | S(rot)=       0.01449462 Eh      9.10 kcal/mol|
|  sn=12 | S(rot)=       0.01440094 Eh      9.04 kcal/mol|
 linear molecules ---------------------------------------
|  Dinfh | S(rot)=       0.01075312 Eh      6.75 kcal/mol|
|  Cinfv | S(rot)=       0.01149944 Eh      7.22 kcal/mol|
 --------------------------------------------------------


-------------------
GIBBS FREE ENERGY
-------------------

The Gibbs free energy is G = H - T*S

Total enthalpy                    ...   -927.88086904 Eh 
Total entropy correction          ...     -0.05953323 Eh    -37.36 kcal/mol
-----------------------------------------------------------------------
Final Gibbs free energy         ...   -927.94040228 Eh

For completeness - the Gibbs free energy minus the electronic energy
G-E(el)                           ...      0.03977976 Eh     24.96 kcal/mol


Maximum memory used throughout the entire PROP-calculation: 54.7 MB

--------------------------------
SUGGESTED CITATIONS FOR THIS RUN
--------------------------------

Below you find a list of papers that are relevant to this ORCA run
We neither can nor want to force you to cite these papers, but we appreciate if you do
You receive ORCA, which is the product of decades of hard work by many enthusiastic individuals, for free
The only thing we kindly ask in return is that you cite our papers,
We deeply appreciate it, if you show your appreciation for ORCA by not just citing the generic ORCA reference.

Please note that relegating all ORCA citations to the supporting information does *not* help us.
SI sections are not indexed - citations you put there will not count into any citation statistics
But we need these citations in order to attract the funding resources that allow us to do what we are doing

Therefore, if you are a happy ORCA user, please consider citing a few of the papers listed below in the main body of your paper

In addition to the list printed below, the program has created the file HFE_347pcf2_gauche1.bibtex that contains the list in bibtex format
You can import this file easily into all common literature databanks and citation aid programs


List of essential papers. We consider these as the minimum necessary citations

  1. Neese, F.
     Software update: the ORCA program system, version 6.0
     WIRES Comput. Molec. Sci. 2025 15(1), e70019
     doi.org/10.1002/wcms.7019

List of papers to cite with high priority. The work reported in these papers was absolutely
necessary for this run to complete.
Our perspective: the developers of density functionals and basis sets usually get cited in chemistry papers
Good! But without the algorithms to do something with them, the functionals or basis sets would not do anything.
Hence, in our opinion, the algorithm design and method developments papers are equally worthy of getting cited

  1. Neese, F.
     An improvement of the resolution of the identity approximation for the formation of the Coulomb matrix
     J. Comp. Chem. 2003 24(14), 1740-1747
     doi.org/10.1002/jcc.10318
  2. Neese, F.; Wennmohs, F.; Hansen, A.; Becker, U.
     Efficient, approximate and parallel Hartree-Fock and hybrid DFT calculations. A 'chain-of-spheres' algorithm for the Hartree-Fock exchange
     Chem. Phys. 2009 356(1-3), 98-109
     doi.org/10.1016/j.chemphys.2008.10.036
  3. Bykov, D.; Petrenko, T.; Izsak, R.; Kossmann, S.; Becker, U.; Valeev, E.; Neese, F.
     Efficient implementation of the analytic second derivatives of Hartree-Fock and hybrid DFT energies: a detailed analysis of different approximations
     Molec. Phys. 2015 113 , 1961-1977
     doi.org/10.1080/00268976.2015.1025114
  4. Helmich-Paris, B.; de Souza, B.; Neese, F.; Izsák, R.
     An improved chain of spheres for exchange algorithm
     J. Chem. Phys. 2021 155(10), 104109
     doi.org/10.1063/5.0058766
  5. Neese, F.
     The SHARK Integral Generation and Digestion System
     J. Comp. Chem. 2022 44(3), 381
     doi.org/10.1002/jcc.26942

List of suggested additional citations. These are papers that are important in the 'surrounding' of 
of this run, or papers that preceded the highly important papers. If you like your results we are grateful for a citation.

  1. Izsak, R.; Neese, F.
     An overlap fitted chain of spheres exchange method
     J. Chem. Phys. 2011 135 , 144105
     doi.org/10.1063/1.3646921
  2. Izsak, R.; Hansen, A.; Neese, F.
     The resolution of identity and chain of spheres approximations for the LPNO-CCSD singles Fock term
     Molec. Phys. 2012 110 , 2413-2417
     doi.org/10.1080/00268976.2012.687466
  3. Neese, F.
     The ORCA program system
     WIRES Comput. Molec. Sci. 2012 2(1), 73-78
     doi.org/10.1002/wcms.81
  4. Izsak, R.; Neese, F.; Klopper, W.
     Robust fitting techniques in the chain of spheres approximation to the Fock exchange: The role of the complementary space
     J. Chem. Phys. 2013 139 , 
     doi.org/10.1063/1.4819264
  5. Neese, F.
     Software update: the ORCA program system, version 4.0
     WIRES Comput. Molec. Sci. 2018 8(1), 1-6
     doi.org/10.1002/wcms.1327
  6. Neese, F.; Wennmohs, F.; Becker, U.; Riplinger, C.
     The ORCA quantum chemistry program package
     J. Chem. Phys. 2020 152(22), 224108
     doi.org/10.1063/5.0004608
  7. Neese, F.
     Software update: The ORCA program system—Version 5.0
     WIRES Comput. Molec. Sci. 2022 12(1), e1606
     doi.org/10.1002/wcms.1606

List of optional additional citations

  1. Neese, F.
     Approximate second-order SCF convergence for spin unrestricted wavefunctions
     Chem. Phys. Lett. 2000 325(1-3), 93-98
     doi.org/10.1016/s0009-2614(00)00662-x

Timings for individual modules:

Sum of individual times          ...      869.942 sec (=  14.499 min)
Startup calculation              ...       13.722 sec (=   0.229 min)   1.6 %
SCF iterations                   ...      300.198 sec (=   5.003 min)  34.5 %
Property integrals               ...       73.672 sec (=   1.228 min)   8.5 %
SCF Response                     ...       44.868 sec (=   0.748 min)   5.2 %
Property calculations            ...      209.335 sec (=   3.489 min)  24.1 %
SCF Gradient evaluation          ...      228.126 sec (=   3.802 min)  26.2 %
Geometry relaxation              ...        0.021 sec (=   0.000 min)   0.0 %
                             ****ORCA TERMINATED NORMALLY****
TOTAL RUN TIME: 0 days 0 hours 14 minutes 30 seconds 353 msec
