
                                 *****************
                                 * O   R   C   A *
                                 *****************

                                            #,                                       
                                            ###                                      
                                            ####                                     
                                            #####                                    
                                            ######                                   
                                           ########,                                 
                                     ,,################,,,,,                         
                               ,,#################################,,                 
                          ,,##########################################,,             
                       ,#########################################, ''#####,          
                    ,#############################################,,   '####,        
                  ,##################################################,,,,####,       
                ,###########''''           ''''###############################       
              ,#####''   ,,,,##########,,,,          '''####'''          '####       
            ,##' ,,,,###########################,,,                        '##       
           ' ,,###''''                  '''############,,,                           
         ,,##''                                '''############,,,,        ,,,,,,###''
      ,#''                                            '''#######################'''  
     '                                                          ''''####''''         
             ,#######,   #######,   ,#######,      ##                                
            ,#'     '#,  ##    ##  ,#'     '#,    #''#        ,####,    ,#,          
            ##       ##  ##   ,#'  ##            #'  '#       #'       ,# #          
            ##       ##  #######   ##           ,######,      #####,      #          
            '#,     ,#'  ##    ##  '#,     ,#' ,#      #,     #,   #      #          
             '#######'   ##     ##  '#######'  #'      '#     '####' #    #          



                #########################################################
                #                        -***-                          #
                #          Department of theory and spectroscopy        #
                #                                                       #
                #                      Frank Neese                      #
                #                                                       #
                #     Directorship, Architecture, Infrastructure        #
                #                    SHARK, DRIVERS                     #
                #        Core code/Algorithms in most modules           #
                #                                                       #
                #        Max Planck Institute fuer Kohlenforschung      #
                #                Kaiser Wilhelm Platz 1                 #
                #                 D-45470 Muelheim/Ruhr                 #
                #                      Germany                          #
                #                                                       #
                #                  All rights reserved                  #
                #                        -***-                          #
                #########################################################


                         Program Version 6.1.0  -  RELEASE   -
                                (GIT: $679e74b$)
                          ($2025-06-10 18:02:51 +0200$)


 With contributions from (in alphabetic order):
[Max-Planck-Institut fuer Kohlenforschung]                               
  Daniel Aravena         : Magnetic Suceptibility                        
  Michael Atanasov       : Ab Initio Ligand Field Theory (pilot matlab implementation)
  Alexander A. Auer      : GIAO ZORA, VPT2 properties, NMR spectrum      
  Ute Becker             : All parallelization in ORCA, NUMFREQ, NUMCALC 
  Giovanni Bistoni       : ED, misc. LED, open-shell LED, HFLD           
  Dmytro Bykov           : pre 5.0 version of the SCF Hessian            
  Marcos Casanova-Páez   : Triplet and SCS-CIS(D). UHF-(DLPNO)-IP/EA/STEOM-CCSD. UHF-CVS-IP/STEOM-CCSD   
  Vijay G. Chilkuri      : MRCI spin determinant printing, contributions to CSF-ICE 
  Pauline Colinet        : FMM embedding                                 
  Dipayan Datta          : RHF DLPNO-CCSD density                        
  Achintya Kumar Dutta   : EOM-CC, STEOM-CC                              
  Nicolas Foglia         : Exact transition moments, OPA infrastructure, MCD improvements    
  Dmitry Ganyushin       : Spin-Orbit,Spin-Spin,Magnetic field MRCI      
  Miquel Garcia-Rates    : C-PCM and meta-GGA Hessian, CCSD/C-PCM, Gaussian charge scheme 
  Tiago L. C. Gouveia    : GS-ROHF, GS-ROCIS                             
  Yang Guo               : DLPNO-NEVPT2, F12-NEVPT2, CIM, IAO-localization        
  Andreas Hansen         : Spin unrestricted coupled pair/coupled cluster methods 
  Ingolf Harden          : AUTO-CI MPn and infrastructure                
  Benjamin Helmich-Paris : MC-RPA, TRAH-(SCF,CASSCF), AVAS, COSX integrals, SCF dyn. polar., MC-PDFT, srDFT 
  Lee Huntington         : MR-EOM, pCC                                   
  Robert Izsak           : Overlap fitted RIJCOSX, COSX-SCS-MP3, EOM     
  Riya Kayal             : Wick's Theorem for AUTO-CI, AUTO-CI UHF-CCSDT 
  Emily Kempfer          : AUTO-CI RHF CISDT and CCSDT, approximate NEVPT4
  Christian Kollmar      : KDIIS, OOCD, Brueckner-CCSD(T), CCSD density, CASPT2, CASPT2-K, improved NEVPT2 
  Axel Koslowski         : Symmetry handling                             
  Simone Kossmann        : meta-GGA functionals, TD-DFT gradient, OOMP2, (MP2 Hessian; deprecated post 5.0) 
  Lucas Lang             : DCDCAS, Hyperfine gauge corrections, ICE-SOC+SSC
  Marvin Lechner         : AUTO-CI (C++ implementation), FIC-MRCC        
  Spencer Leger          : CASSCF response                               
  Dagmar Lenk            : GEPOL surface, SMD, ORCA-2-JSON               
  Dimitrios Liakos       : Extrapolation schemes; Compound Job, Property file
  Dimitrios Manganas     : Further ROCIS development; embedding schemes. LFT, Crystal Embedding 
  Dimitrios Pantazis     : SARC Basis sets                               
  Anastasios Papadopoulos: AUTO-CI, single reference methods and gradients 
  Taras Petrenko         : pre 6.0 DFT Hessian and TD-DFT gradient,  ECA, NRVS 
  Petra Pikulova         : Analytic Raman intensities                    
  Peter Pinski           : DLPNO-MP2, DLPNO-MP2 Gradient                 
  Shashank Vittal Rao    : ES-AILFT, MagRelax                            
  Christoph Reimann      : Effective Core Potentials                     
  Marius Retegan         : Local ZFS, SOC                                
  Christoph Riplinger    : Optimizer, TS searches, QM/MM, DLPNO-CCSD(T), (RO)-DLPNO pert. Triples 
  Michael Roemelt        : Original ROCIS implementation, recursive CI coupling coefficients
  Masaaki Saitow         : Open-shell DLPNO-CCSD energy and density      
  Barbara Sandhoefer     : DKH picture change effects                    
  Yorick L. A. Schmerwitz: GMF and freeze-and-release deltaSCF, NEB S-IDPP initial path                    
  Kantharuban Sivalingam : CASSCF convergence/infrastructure, NEVPT2, NEVPT3, NEVPT4(SD), FIC-MRCI and CEPA variants
  Bernardo de Souza      : ESD, SOC TD-DFT                               
  Georgi L. Stoychev     : AutoAux, RI-MP2 NMR, DLPNO-MP2 response, X2C  
  Van Anh Tran           : RI-MP2 g-tensors                              
  Willem Van den Heuvel  : Paramagnetic NMR                              
  Zikuan Wang            : NOTCH, Electric field optimization            
  Frank Wennmohs         : Technical directorship and infrastructure     
  Hang Xu                : AUTO-CI-Response properties                   
                                                                         
[FACCTs GmbH]                                                            
  Markus Bursch, Nicolas Foglia, Miquel Garcia-Rates, Ingolf Harden, Hagen Neugebauer, Anastasios Papadopoulos, 
  Christoph Riplinger, Bernardo de Souza, Georgi L. Stoychev                                                    
                                                                 
  APM, various basis sets, CI-OPT, improved COSX, DLPNO-Multilevel,           
  DOCKER, DRACO, updates on ESD, Fragmentator, GOAT, IRC, LR-CPCM, L-BFGS, MBIS, meta-GGA TD-DFT gradient, ML-optimized integration grids, 
  MM, NACMEs, nearIR, NEB, NEB-TS, NL-DFT gradient (VV10), 2- and 3-layer-ONIOM, interface openCOSMO-RS, QMMM,   
  Crystal-QMMM, RESP, rigid body optimization, SF, symmetry and pop. for TD-DFT, various functionals, SOLVATOR                                   
                                                                         
[Other institutions]                                                     
  V. Asgeirsson          : NEB                                           
  Christoph Bannwarth    : sTDA-DFT, sTD-DFT, PBEh-3c, B97-3c, D3        
  Giovanni Bistoni       : ETS/NOCV, ADLD/ADEX, COVALED                  
  Martin Brehm           : Molecular dynamics                            
  Ronald Cardenas        : ETS/NOCV                                      
  Martina Colucci        : COVALED                                       
  Sebastian Ehlert       : rSCAN, r2SCAN, r2SCAN-3c, D4, dhf basis sets  
  Marvin Friede          : D4 for Fr, Ra, Ac-Lr                          
  Lars Goerigk           : TD-DFT with DH, B97 family of functionals     
  Stefan Grimme          : VdW corrections, initial TS optimization, DFT functionals, gCP, sTDA/sTD-DF 
  Waldemar Hujo          : DFT-NL                                        
  H. Jonsson             : NEB                                           
  Holger Kruse           : gCP                                           
  Marcel Mueller         : wB97X-3c, vDZP basis set                      
  Hagen Neugebauer       : wr2SCAN, Native XTB                           
  Gianluca Regni         : ADLD/ADEX                                     
  Tobias Risthaus        : pre 6.0 range-separated hybrid DFT and stability analysis
  Lukas Wittmann         : regularized MP2, r2SCAN double-hybrids, wr2SCAN        
                                                                         
We gratefully acknowledge several colleagues who have allowed us to      
interface, adapt or use parts of their codes:                            
  Ed Valeev, F. Pavosevic, A. Kumar             : LibInt (2-el integral package), F12 methods 
  Garnet Chan, S. Sharma, J. Yang, R. Olivares  : DMRG                   
  Ulf Ekstrom                                   : XCFun DFT Library      
  Mihaly Kallay                                 : mrcc  (arbitrary order and MRCC methods)
  Frank Weinhold                                : gennbo (NPA and NBO analysis)           
  Simon Mueller                                 : openCOSMO-RS                            
  Christopher J. Cramer and Donald G. Truhlar   : smd solvation model                     
  S Lehtola, MJT Oliveira, MAL Marques          : LibXC Library                           
  Liviu Ungur et al                             : ANISO software                          


 Your calculation uses the libint2 library for the computation of 2-el integrals
 For citations please refer to: http://libint.valeyev.net

 Your ORCA version has been built with support for libXC version: 7.0.0
 For citations please refer to: https://libxc.gitlab.io

 This ORCA versions uses:
   CBLAS   interface :  Fast vector & matrix operations
   LAPACKE interface :  Fast linear algebra routines
   SCALAPACK package :  Parallel linear algebra routines
   Shared memory     :  Shared parallel matrices
   BLAS/LAPACK       :  OpenBLAS 0.3.29  USE64BITINT DYNAMIC_ARCH NO_AFFINITY Haswell SINGLE_THREADED
        Core in use  :  Haswell
   Copyright (c) 2011-2014, The OpenBLAS Project


  ***********************************
  * Starting time: Sat Feb  7 13:41:19 2026
  * Host name:     BOOK-611GI2U5BQ
  * Process ID:    213634
  * Working dir.:  /home/a_limbo/IR_LAB_2027/data/HFE-347pcf2/B3PW91_6_31Gd/ORCA_files
  ***********************************

Warning: RI is on but no J-basis has been assigned. Assigning Def2/J (nothing to worry about!)
================================================================================

----- Orbital basis set information -----
Your calculation utilizes the basis: 6-31G(d)
   H-He, Li-Ne : W. J. Hehre, R. Ditchfield and J.A. Pople, J. Chem. Phys. 56, 2257 (1972).
                 Note: He and Ne are unpublished basis sets taken from the Gaussian program.
                 Note: Li and B from J. D. Dill and J. A. Pople, J. Chem. Phys. 62, 2921 (1975).
   Na - Ar     : M. M. Francl, W. J. Pietro, W. J. Hehre, J. S. Binkley, M. S. Gordon, 
                 D. J. DeFrees and J. A. Pople, J. Chem. Phys. 77, 3654 (1982).
   K - Zn      : V. A. Rassolov, J. A. Pople, M. A. Ratner, and T. L. Windus, J. Chem. Phys. 109, 1223 (1998).

----- AuxJ basis set information -----
Your calculation utilizes the auxiliary basis: def2/J
   H-Rn: F. Weigend, Phys. Chem. Chem. Phys. 8, 1057 (2006).
   Fr-Lr: K. Eichkorn, F. Weigend, O. Treutler, R. Ahlrichs; Theor. Chem. Acc. 97, 119 (1997).

================================================================================
                                        WARNINGS
                       Please study these warnings very carefully!
================================================================================


WARNING: Geometry Optimization
  ===> : Switching off AutoStart
         For restart on a previous wavefunction, please use MOREAD

================================================================================
                                       INPUT FILE
================================================================================
NAME = HFE_347pcf2_gauche2.inp
|  1> # avogadro generated ORCA input file 
|  2> # Basic Mode
|  3> # 
|  4> ! B3PW91 6-31G(d) OPT FREQ 
|  5> 
|  6> * xyz 0 1
|  7>    F        1.57550       -1.24070        1.22680
|  8>    F        2.24660       -1.31560       -0.85780
|  9>    F        1.24280        1.48160        1.02660
| 10>    F        1.89540        1.41730       -1.04930
| 11>    F       -2.21040        0.58860       -1.24560
| 12>    F       -2.97990        0.67620        0.79360
| 13>    F       -2.55970       -1.25630       -0.13610
| 14>    O        0.13720       -0.61470       -0.40400
| 15>    C        1.49250       -0.61950        0.02550
| 16>    C       -0.71760        0.07520        0.49690
| 17>    C        2.00800        0.78950        0.14680
| 18>    C       -2.13040        0.01840       -0.02340
| 19>    H       -0.53430        1.14710        0.50530
| 20>    H       -0.65750       -0.34600        1.50500
| 21>    H        3.05020        0.82730        0.47350
| 22> *
| 23> 
| 24> 
| 25>                          ****END OF INPUT****
================================================================================

                       *****************************
                       * Geometry Optimization Run *
                       *****************************

Geometry optimization settings:
Update method            Update   .... BFGS
Choice of coordinates    CoordSys .... (2022) Redundant Internals
Initial Hessian          InHess   .... Almloef's Model
Max. no of cycles        MaxIter  .... 50

Convergence Tolerances:
Energy Change            TolE     ....  5.0000e-06 Eh
Max. Gradient            TolMAXG  ....  3.0000e-04 Eh/bohr
RMS Gradient             TolRMSG  ....  1.0000e-04 Eh/bohr
Max. Displacement        TolMAXD  ....  4.0000e-03 bohr
RMS Displacement         TolRMSD  ....  2.0000e-03 bohr
Strict Convergence                .... False

------------------------------------------------------------------------------
                        ORCA OPTIMIZATION COORDINATE SETUP
------------------------------------------------------------------------------

The optimization will be done in redundant internal coordinates (2022)
Making redundant internal coordinates   ...  (2022 redundants) done
Evaluating the initial hessian          ...  (Almloef) done
Evaluating the coordinates              ...  done
Calculating the B-matrix                .... done
Calculating the G-matrix                .... done
The number of degrees of freedom        ....   57

    -----------------------------------------------------------------
                    Redundant Internal Coordinates


    -----------------------------------------------------------------
         Definition                    Initial Value    Approx d2E/dq
    -----------------------------------------------------------------
      1. B(C   8,F   1)                  1.3540         0.593374   
      2. B(C   8,O   7)                  1.4217         0.498017   
      3. B(C   8,F   0)                  1.3550         0.591399   
      4. B(C   9,O   7)                  1.4207         0.499994   
      5. B(C  10,F   3)                  1.3555         0.590144   
      6. B(C  10,C   8)                  1.5052         0.409154   
      7. B(C  10,F   2)                  1.3559         0.589254   
      8. B(C  11,F   6)                  1.3498         0.602785   
      9. B(C  11,F   5)                  1.3498         0.602801   
     10. B(C  11,C   9)                  1.5066         0.407060   
     11. B(C  11,F   4)                  1.3510         0.599970   
     12. B(H  12,C   9)                  1.0875         0.363433   
     13. B(H  13,C   9)                  1.0942         0.354579   
     14. B(H  14,C  10)                  1.0929         0.356337   
     15. A(C   8,O   7,C   9)          112.5596         0.396641   
     16. A(F   1,C   8,C  10)          110.0634         0.395699   
     17. A(F   1,C   8,O   7)          109.6069         0.407012   
     18. A(O   7,C   8,C  10)          110.3438         0.385431   
     19. A(F   0,C   8,C  10)          109.6777         0.395467   
     20. A(F   0,C   8,F   1)          107.9723         0.417779   
     21. A(F   0,C   8,O   7)          109.1341         0.406772   
     22. A(H  12,C   9,H  13)          111.2872         0.290555   
     23. A(C  11,C   9,H  13)          110.8030         0.328098   
     24. A(O   7,C   9,H  13)          111.3620         0.337428   
     25. A(C  11,C   9,H  12)          101.4132         0.329436   
     26. A(O   7,C   9,H  12)          112.4662         0.338819   
     27. A(O   7,C   9,C  11)          109.0818         0.385352   
     28. A(F   3,C  10,H  14)          109.0854         0.345773   
     29. A(F   2,C  10,H  14)          109.0595         0.345685   
     30. A(F   2,C  10,F   3)          106.8137         0.417103   
     31. A(F   3,C  10,C   8)          109.5101         0.395320   
     32. A(C   8,C  10,H  14)          112.5235         0.328644   
     33. A(F   2,C  10,C   8)          109.6825         0.395215   
     34. A(F   4,C  11,C   9)          110.6111         0.396110   
     35. A(F   5,C  11,F   6)          108.0959         0.420381   
     36. A(F   4,C  11,F   6)          107.7105         0.420028   
     37. A(F   4,C  11,F   5)          107.7354         0.420030   
     38. A(F   6,C  11,C   9)          111.2652         0.396436   
     39. A(F   5,C  11,C   9)          111.2705         0.396438   
     40. D(F   1,C   8,O   7,C   9)    178.6391         0.019603   
     41. D(F   0,C   8,O   7,C   9)     60.5858         0.019603   
     42. D(C  10,C   8,O   7,C   9)    -59.9962         0.019603   
     43. D(H  13,C   9,O   7,C   8)    -56.7360         0.019764   
     44. D(H  12,C   9,O   7,C   8)     68.9670         0.019764   
     45. D(C  11,C   9,O   7,C   8)   -179.3401         0.019764   
     46. D(F   2,C  10,C   8,F   0)    -61.7161         0.013263   
     47. D(F   3,C  10,C   8,O   7)    -58.3750         0.013263   
     48. D(F   3,C  10,C   8,F   1)     62.7180         0.013263   
     49. D(F   3,C  10,C   8,F   0)   -178.6309         0.013263   
     50. D(F   2,C  10,C   8,O   7)     58.5397         0.013263   
     51. D(F   2,C  10,C   8,F   1)    179.6328         0.013263   
     52. D(F   4,C  11,C   9,H  13)    177.5026         0.013131   
     53. D(F   4,C  11,C   9,H  12)     59.2803         0.013131   
     54. D(F   4,C  11,C   9,O   7)    -59.5585         0.013131   
     55. D(F   5,C  11,C   9,H  13)     57.7896         0.013131   
     56. D(F   5,C  11,C   9,H  12)    -60.4327         0.013131   
     57. D(F   5,C  11,C   9,O   7)   -179.2715         0.013131   
    -----------------------------------------------------------------

Number of atoms                         .... 15
Number of degrees of freedom            .... 57


         *************************************************************
         *                GEOMETRY OPTIMIZATION CYCLE   1            *
         *************************************************************
---------------------------------
CARTESIAN COORDINATES (ANGSTROEM)
---------------------------------
  F      1.575500   -1.240700    1.226800
  F      2.246600   -1.315600   -0.857800
  F      1.242800    1.481600    1.026600
  F      1.895400    1.417300   -1.049300
  F     -2.210400    0.588600   -1.245600
  F     -2.979900    0.676200    0.793600
  F     -2.559700   -1.256300   -0.136100
  O      0.137200   -0.614700   -0.404000
  C      1.492500   -0.619500    0.025500
  C     -0.717600    0.075200    0.496900
  C      2.008000    0.789500    0.146800
  C     -2.130400    0.018400   -0.023400
  H     -0.534300    1.147100    0.505300
  H     -0.657500   -0.346000    1.505000
  H      3.050200    0.827300    0.473500

----------------------------
CARTESIAN COORDINATES (A.U.)
----------------------------
  NO LB      ZA    FRAG     MASS         X           Y           Z
   0 F     9.0000    0    18.998    2.977264   -2.344583    2.318316
   1 F     9.0000    0    18.998    4.245459   -2.486124   -1.621007
   2 F     9.0000    0    18.998    2.348552    2.799818    1.939993
   3 F     9.0000    0    18.998    3.581787    2.678309   -1.982890
   4 F     9.0000    0    18.998   -4.177051    1.112293   -2.353843
   5 F     9.0000    0    18.998   -5.631195    1.277833    1.499687
   6 F     9.0000    0    18.998   -4.837132   -2.374063   -0.257192
   7 O     8.0000    0    15.999    0.259270   -1.161615   -0.763449
   8 C     6.0000    0    12.011    2.820416   -1.170685    0.048188
   9 C     6.0000    0    12.011   -1.356067    0.142107    0.939005
  10 C     6.0000    0    12.011    3.794570    1.491939    0.277412
  11 C     6.0000    0    12.011   -4.025873    0.034771   -0.044220
  12 H     1.0000    0     1.008   -1.009681    2.167705    0.954879
  13 H     1.0000    0     1.008   -1.242495   -0.653845    2.844038
  14 H     1.0000    0     1.008    5.764043    1.563370    0.894785

--------------------------------
INTERNAL COORDINATES (ANGSTROEM)
--------------------------------
 F      0   0   0     0.000000000000     0.00000000     0.00000000
 F      1   0   0     2.191242200214     0.00000000     0.00000000
 F      1   2   0     2.749852108751    90.09355006     0.00000000
 F      3   1   2     2.177012186461    90.22425874     0.35296628
 F      4   3   1     4.193193415525    75.93372403    85.69446382
 F      5   4   3     2.181316265469   107.08054245     1.33679615
 F      5   4   3     2.180976100282   107.46846186   298.05368267
 O      1   2   3     2.262761925170    61.21614647    62.54808888
 C      2   1   3     1.354046125507    36.02780568   333.74686837
 C      8   1   2     1.420656841042    93.42681437   197.81184094
 C      4   3   1     1.355531928801    36.59961993   332.66665868
 C      6   5   4     1.349755566760    36.15212786   296.82148733
 H     10   8   1     1.087492096523   112.46622839    98.54972767
 H     10   8   1     1.094206132317   111.36200472   332.84681044
 H     11   4   3     1.092859812602   109.08543249   242.25564236

---------------------------
INTERNAL COORDINATES (A.U.)
---------------------------
 F      0   0   0     0.000000000000     0.00000000     0.00000000
 F      1   0   0     4.140847651496     0.00000000     0.00000000
 F      1   2   0     5.196467394324    90.09355006     0.00000000
 F      3   1   2     4.113956822621    90.22425874     0.35296628
 F      4   3   1     7.923987181904    75.93372403    85.69446382
 F      5   4   3     4.122090353204   107.08054245     1.33679615
 F      5   4   3     4.121447534160   107.46846186   298.05368267
 O      1   2   3     4.276000344836    61.21614647    62.54808888
 C      2   1   3     2.558776349905    36.02780568   333.74686837
 C      8   1   2     2.684652359851    93.42681437   197.81184094
 C      4   3   1     2.561584111221    36.59961993   332.66665868
 C      6   5   4     2.550668368912    36.15212786   296.82148733
 H     10   8   1     2.055062235232   112.46622839    98.54972767
 H     10   8   1     2.067749924136   111.36200472   332.84681044
 H     11   4   3     2.065205748586   109.08543249   242.25564236

---------------------
BASIS SET INFORMATION
---------------------
There are 4 groups of distinct atoms

 Group   1 Type F   : 10s4p1d contracted to 3s2p1d pattern {631/31/1}
 Group   2 Type O   : 10s4p1d contracted to 3s2p1d pattern {631/31/1}
 Group   3 Type C   : 10s4p1d contracted to 3s2p1d pattern {631/31/1}
 Group   4 Type H   : 4s contracted to 2s pattern {31}

Atom   0F    basis set group =>   1
Atom   1F    basis set group =>   1
Atom   2F    basis set group =>   1
Atom   3F    basis set group =>   1
Atom   4F    basis set group =>   1
Atom   5F    basis set group =>   1
Atom   6F    basis set group =>   1
Atom   7O    basis set group =>   2
Atom   8C    basis set group =>   3
Atom   9C    basis set group =>   3
Atom  10C    basis set group =>   3
Atom  11C    basis set group =>   3
Atom  12H    basis set group =>   4
Atom  13H    basis set group =>   4
Atom  14H    basis set group =>   4
---------------------------------
AUXILIARY/J BASIS SET INFORMATION
---------------------------------
There are 4 groups of distinct atoms

 Group   1 Type F   : 12s5p4d2f1g contracted to 6s4p3d1f1g pattern {711111/2111/211/2/1}
 Group   2 Type O   : 12s5p4d2f1g contracted to 6s4p3d1f1g pattern {711111/2111/211/2/1}
 Group   3 Type C   : 12s5p4d2f1g contracted to 6s4p3d1f1g pattern {711111/2111/211/2/1}
 Group   4 Type H   : 5s2p1d contracted to 3s1p1d pattern {311/2/1}

Atom   0F    basis set group =>   1
Atom   1F    basis set group =>   1
Atom   2F    basis set group =>   1
Atom   3F    basis set group =>   1
Atom   4F    basis set group =>   1
Atom   5F    basis set group =>   1
Atom   6F    basis set group =>   1
Atom   7O    basis set group =>   2
Atom   8C    basis set group =>   3
Atom   9C    basis set group =>   3
Atom  10C    basis set group =>   3
Atom  11C    basis set group =>   3
Atom  12H    basis set group =>   4
Atom  13H    basis set group =>   4
Atom  14H    basis set group =>   4
------------------------------------------------------------------------------
                             ORCA STARTUP CALCULATIONS
                           -- RI-GTO INTEGRALS CHOSEN --
------------------------------------------------------------------------------
------------------------------------------------------------------------------
                   ___                                                        
                  /   \      - P O W E R E D   B Y -                         
                 /     \                                                     
                 |  |  |   _    _      __       _____    __    __             
                 |  |  |  | |  | |    /  \     |  _  \  |  |  /  |          
                  \  \/   | |  | |   /    \    | | | |  |  | /  /          
                 / \  \   | |__| |  /  /\  \   | |_| |  |  |/  /          
                |  |  |   |  __  | /  /__\  \  |    /   |      \           
                |  |  |   | |  | | |   __   |  |    \   |  |\   \          
                \     /   | |  | | |  |  |  |  | |\  \  |  | \   \       
                 \___/    |_|  |_| |__|  |__|  |_| \__\ |__|  \__/        
                                                                              
                      - O R C A' S   B I G   F R I E N D -                    
                                      &                                       
                       - I N T E G R A L  F E E D E R -                       
                                                                              
 v1 FN, 2020, v2 2021, v3 2022-2024                                           
------------------------------------------------------------------------------


----------------------
SHARK INTEGRAL PACKAGE
----------------------

Number of atoms                             ...     15
Number of basis functions                   ...    174
Number of shells                            ...     78
Maximum angular momentum                    ...      2
Integral batch strategy                     ... SHARK/LIBINT Hybrid
RI-J (if used) integral strategy            ... SPLIT-RIJ (Revised 2003 algorithm where possible)
Printlevel                                  ...      1
Contraction scheme used                     ... SEGMENTED contraction
Prescreening option                         ... SCHWARTZ
   Thresh                                   ... 2.500e-11
   Tcut                                     ... 2.500e-12
   Tpresel                                  ... 2.500e-12 
Coulomb Range Separation                    ... NOT USED
Exchange Range Separation                   ... NOT USED
Multipole approximations                    ... NOT USED
Finite Nucleus Model                        ... NOT USED
CABS basis                                  ... NOT available
Auxiliary Coulomb fitting basis             ... AVAILABLE
   # of basis functions in Aux-J            ...    621
   # of shells in Aux-J                     ...    195
   Maximum angular momentum in Aux-J        ...      4
Auxiliary J/K fitting basis                 ... NOT available
Auxiliary Correlation fitting basis         ... NOT available
Auxiliary 'external' fitting basis          ... NOT available

Checking pre-screening integrals            ... done (  0.0 sec) Dimension = 78
   => SHARK Basis and OBASIS are compatible. Storing Pre-screening
Shell pair information
Shell pair cut-off parameter TPreSel        ...   2.5e-12
Total number of shell pairs                 ...      3081
Shell pairs after pre-screening             ...      2630
Total number of primitive shell pairs       ...     18789
Primitive shell pairs kept                  ...      9608
          la=0 lb=0:    728 shell pairs
          la=1 lb=0:    879 shell pairs
          la=1 lb=1:    282 shell pairs
          la=2 lb=0:    412 shell pairs
          la=2 lb=1:    260 shell pairs
          la=2 lb=2:     69 shell pairs

Checking whether 4 symmetric matrices of dimension 174 fit in memory
:Max Core in MB      =   4096.00
 MB in use           =      7.18
 MB left             =   4088.82
 MB needed           =      0.46
 Data fit in memory  = YES
Calculating RI/J V-Matrix + Cholesky decomp.... done (  0.0 sec)
Calculating Nuclear repulsion               ... done (  0.0 sec) ENN=    863.221943248253 Eh

Diagonalization of the overlap matrix:
Smallest eigenvalue                        ... 2.875e-03
Time for diagonalization                   ...    0.003 sec
Threshold for overlap eigenvalues          ... 1.000e-07
Number of eigenvalues below threshold      ... 0
Time for construction of square roots      ...    0.001 sec
Total time needed                          ...    0.005 sec

-------------------
DFT GRID GENERATION
-------------------

General Integration Accuracy     IntAcc      ... 4.388
Radial Grid Type                 RadialGrid  ... OptM3 with GC (2021)
Angular Grid (max. ang.)         AngularGrid ... 4 (Lebedev-302)
Angular grid pruning method      GridPruning ... 4 (adaptive)
Weight generation scheme         WeightScheme... mBecke (2022)
Basis function cutoff            BFCut       ... 1.0000e-11
Integration weight cutoff        WCut        ... 1.0000e-14
Partially contracted basis set               ... off
Rotationally invariant grid construction     ... off
Angular grids for H and He will be reduced by one unit

Total number of grid points                  ...    82475
Total number of batches                      ...     1298
Average number of points per batch           ...       63
Average number of grid points per atom       ...     5498

--------------------
COSX GRID GENERATION
--------------------

GRIDX 1
-------
General Integration Accuracy     IntAcc      ... 3.816
Radial Grid Type                 RadialGrid  ... OptM3 with GC (2021)
Angular Grid (max. ang.)         AngularGrid ... 1 (Lebedev-50)
Angular grid pruning method      GridPruning ... 4 (adaptive)
Weight generation scheme         WeightScheme... mBecke (2022)
Basis function cutoff            BFCut       ... 1.0000e-11
Integration weight cutoff        WCut        ... 1.0000e-14
Partially contracted basis set               ... on
Rotationally invariant grid construction     ... off
Angular grids for H and He will be reduced by one unit

Total number of grid points                  ...    10421
Total number of batches                      ...       90
Average number of points per batch           ...      115
Average number of grid points per atom       ...      695
UseSFitting                                  ... on

GRIDX 2
-------
General Integration Accuracy     IntAcc      ... 4.020
Radial Grid Type                 RadialGrid  ... OptM3 with GC (2021)
Angular Grid (max. ang.)         AngularGrid ... 2 (Lebedev-110)
Angular grid pruning method      GridPruning ... 4 (adaptive)
Weight generation scheme         WeightScheme... mBecke (2022)
Basis function cutoff            BFCut       ... 1.0000e-11
Integration weight cutoff        WCut        ... 1.0000e-14
Partially contracted basis set               ... on
Rotationally invariant grid construction     ... off
Angular grids for H and He will be reduced by one unit

Total number of grid points                  ...    24152
Total number of batches                      ...      198
Average number of points per batch           ...      121
Average number of grid points per atom       ...     1610
UseSFitting                                  ... on

GRIDX 3
-------
General Integration Accuracy     IntAcc      ... 4.338
Radial Grid Type                 RadialGrid  ... OptM3 with GC (2021)
Angular Grid (max. ang.)         AngularGrid ... 3 (Lebedev-194)
Angular grid pruning method      GridPruning ... 4 (adaptive)
Weight generation scheme         WeightScheme... mBecke (2022)
Basis function cutoff            BFCut       ... 1.0000e-11
Integration weight cutoff        WCut        ... 1.0000e-14
Partially contracted basis set               ... on
Rotationally invariant grid construction     ... off
Angular grids for H and He will be reduced by one unit

Total number of grid points                  ...    53395
Total number of batches                      ...      424
Average number of points per batch           ...      125
Average number of grid points per atom       ...     3560
UseSFitting                                  ... on
Grids setup in   1.3 sec
Initializing property integral containers    ... done (  0.0 sec)

SHARK setup successfully completed in   1.4 seconds

Maximum memory used throughout the entire STARTUP-calculation: 34.0 MB
-------------------------------------------------------------------------------
                                 ORCA GUESS
                   Start orbitals & Density for SCF / CASSCF
-------------------------------------------------------------------------------

------------
SCF SETTINGS
------------
Hamiltonian:
 Density Functional     Method          .... DFT(GTOs)
 Exchange Functional    Exchange        .... B88
   X-Alpha parameter    XAlpha          ....  0.666667
   Becke's b parameter  XBeta           ....  0.004200
 Correlation Functional Correlation     .... PW91
 LDA part of GGA corr.  LDAOpt          .... PW91-LDA
 Gradients option       PostSCFGGA      .... off
 Hybrid DFT is turned on
   Fraction HF Exchange ScalHFX         ....  0.200000
   Scaling of DF-GGA-X  ScalDFX         ....  0.720000
   Scaling of DF-GGA-C  ScalDFC         ....  0.810000
   Scaling of DF-LDA-C  ScalLDAC        ....  1.000000
   Perturbative correction              ....  0.000000
   NL short-range parameter             ....  4.500000
 RI-approximation to the Coulomb term is turned on
   Number of AuxJ basis functions       .... 621
   RIJ-COSX (HFX calculated with COS-X)).... on


General Settings:
 Integral files         IntName         .... HFE_347pcf2_gauche2
 Hartree-Fock type      HFTyp           .... RHF
 Total Charge           Charge          ....    0
 Multiplicity           Mult            ....    1
 Number of Electrons    NEL             ....   98
 Basis Dimension        Dim             ....  174
 Nuclear Repulsion      ENuc            ....    863.2219432483 Eh

Convergence Acceleration:
 AO-DIIS                CNVDIIS         .... on
   Start iteration      DIISMaxIt       ....    12
   Startup error        DIISStart       ....  0.200000
   # of expansion vecs  DIISMaxEq       ....     5
   Bias factor          DIISBfac        ....   1.050
   Max. coefficient     DIISMaxC        ....  10.000
 MO-DIIS                CNVKDIIS        .... off
 Trust-Rad. Augm. Hess. CNVTRAH         .... auto
   Auto Start mean grad. ratio tolernc. ....  1.125000
   Auto Start start iteration           ....    50
   Auto Start num. interpolation iter.  ....    10
   Max. Number of Micro iterations      ....    24
   Max. Number of Macro iterations      .... Maxiter - #DIIS iter
   Number of Davidson start vectors     ....     2
   Converg. threshold    (grad. norm)   ....   1.000e-05
   Grad. Scal. Fac. for Micro threshold ....   0.100
   Minimum threshold for Micro iter.    ....   1.000e-02
   NR start threshold (gradient norm)   ....   1.000e-04
   Initial trust radius                 ....   0.400
   Minimum AH scaling param. (alpha)    ....   1.000
   Maximum AH scaling param. (alpha)    .... 1000.000
   Quad. conv. algorithm                .... NR
   White noise on init. David. guess    .... on
   Maximum white noise                  ....   0.010
   Pseudo random numbers                .... off
   Inactive MOs                         .... canonical
   Orbital update algorithm             .... Taylor
   Preconditioner                       .... Diag
   Full preconditioner red. dimension   ....   250
 SOSCF                 CNVSOSCF           .... on
   Start iteration     SOSCFMaxIt         ....   150
   Startup grad/error  SOSCFStart         ....  0.003300
   Hessian update      SOSCFHessUp        .... L-BFGS
   Autom. constraints  SOSCFAutoConstrain .... off
 Level Shifting         CNVShift        .... on
   Level shift para.    LevelShift      ....    0.2500
   Turn off err/grad.   ShiftErr        ....    0.0010
 Zerner damping         CNVZerner       .... off
 Static damping         CNVDamp         .... on
   Fraction old density DampFac         ....    0.7000
   Max. Damping (<1)    DampMax         ....    0.9800
   Min. Damping (>=0)   DampMin         ....    0.0000
   Turn off err/grad.   DampErr         ....    0.1000

SCF Procedure:
 Maximum # iterations   MaxIter         ....   125
 SCF integral mode      SCFMode         .... Direct
   Integral package                     .... SHARK and LIBINT hybrid scheme
 Reset frequency        DirectResetFreq ....    20
 Integral Threshold     Thresh          ....  2.500e-11 Eh
 Primitive CutOff       TCut            ....  2.500e-12 Eh

Convergence Tolerance:
 Convergence Check Mode ConvCheckMode   .... Total+1el-Energy
 Convergence forced     ConvForced      .... 0
 Energy Change          TolE            ....  1.000e-08 Eh
 1-El. energy change                    ....  1.000e-05 Eh
 Orbital Gradient       TolG            ....  1.000e-05
 Orbital Rotation angle TolX            ....  1.000e-05
 DIIS Error             TolErr          ....  5.000e-07

------------------------------
INITIAL GUESS: MODEL POTENTIAL
------------------------------
Loading Hartree-Fock densities                     ... done
Calculating cut-offs                               ... done
Initializing the effective Hamiltonian             ... done
Setting up the integral package (SHARK)            ... done
Starting the Coulomb interaction                   ... done (   0.1 sec)
Making the grid                                    ... done (   0.2 sec)
Mapping shells                                     ... done
Starting the XC term evaluation                    ... done (   0.2 sec)
  promolecular density results
     # of electrons  =     97.998127568
     EX              =   -100.082209182
     EC              =     -3.691824088
     EX+EC           =   -103.774033270
Transforming the Hamiltonian                       ... done (   0.0 sec)
Diagonalizing the Hamiltonian                      ... done (   0.0 sec)
Back transforming the eigenvectors                 ... done (   0.0 sec)
Now organizing SCF variables                       ... done
                      ------------------
                      INITIAL GUESS DONE (   0.5 sec)
                      ------------------
             **** ENERGY FILE WAS UPDATED (HFE_347pcf2_gauche2.en.tmp) ****
Finished Guess after   0.6 sec
Maximum memory used throughout the entire GUESS-calculation: 12.4 MB

-------------------------------------------------------------------------------------------
                                      ORCA LEAN-SCF
                              memory conserving SCF solver
-------------------------------------------------------------------------------------------

----------------------------------------D-I-I-S--------------------------------------------
Iteration    Energy (Eh)           Delta-E    RMSDP     MaxDP     DIISErr   Damp  Time(sec)
-------------------------------------------------------------------------------------------
               ***  Starting incremental Fock matrix formation  ***
    1    -927.7817662887671304     0.00e+00  2.40e-03  5.79e-02  1.93e-01  0.700   4.6
    2    -927.8708720569486559    -8.91e-02  1.32e-03  3.21e-02  7.79e-02  0.700   2.1
                               ***Turning on AO-DIIS***
    3    -927.9013755912560555    -3.05e-02  3.91e-04  9.49e-03  2.05e-02  0.700   2.1
    4    -927.9214481760318449    -2.01e-02  7.01e-04  1.12e-02  1.03e-02  0.000   2.0
                              *** Initializing SOSCF ***
---------------------------------------S-O-S-C-F--------------------------------------
Iteration    Energy (Eh)           Delta-E    RMSDP     MaxDP     MaxGrad    Time(sec)
--------------------------------------------------------------------------------------
    5    -927.9673427814816478    -4.59e-02  1.30e-04  2.44e-03  2.70e-03     2.1
               *** Restarting incremental Fock matrix formation ***
    6    -927.9674209559291285    -7.82e-05  5.38e-05  9.13e-04  2.36e-04     4.4
    7    -927.9674218167690469    -8.61e-07  2.33e-05  4.70e-04  2.67e-04     3.3
    8    -927.9674252559432261    -3.44e-06  7.61e-06  1.28e-04  4.89e-05     3.1
    9    -927.9674253224545737    -6.65e-08  3.13e-06  7.02e-05  2.66e-05     3.0
   10    -927.9674253786581630    -5.62e-08  1.75e-06  2.52e-05  1.04e-05     2.5
   11    -927.9674253780622166     5.96e-10  7.47e-07  1.69e-05  7.00e-06     2.3
                 **** Energy Check signals convergence ****

               *****************************************************
               *                     SUCCESS                       *
               *           SCF CONVERGED AFTER  11 CYCLES          *
               *****************************************************

Recomputing exchange energy using gridx3       ... done (    7.602 sec)
Old exchange energy                            :    -20.114612827 Eh
New exchange energy                            :    -20.114606875 Eh
Exchange energy change after final integration :      0.000005952 Eh
Total energy after final integration           :   -927.967419430 Eh
             **** ENERGY FILE WAS UPDATED (HFE_347pcf2_gauche2.en.tmp) ****

----------------
TOTAL SCF ENERGY
----------------

Total Energy       :       -927.96741942979122 Eh          -25251.27723 eV

Components:
Nuclear Repulsion  :        863.22194324825341 Eh           23489.46326 eV
Electronic Energy  :      -1791.18936863021577 Eh          -48740.74065 eV
One Electron Energy:      -3004.98210399012169 Eh          -81769.72014 eV
Two Electron Energy:       1213.79273535990592 Eh           33028.97949 eV

Virial components:
Potential Energy   :      -1851.37168777217312 Eh          -50378.38481 eV
Kinetic Energy     :        923.40426834238201 Eh           25127.10758 eV
Virial Ratio       :          2.00494166124616

DFT components:
N(Alpha)           :       48.999994086602 electrons
N(Beta)            :       48.999994086602 electrons
N(Total)           :       97.999988173204 electrons
E(X)               :      -80.067147268234 Eh       
E(C)               :       -4.300848119191 Eh       
E(XC)              :      -84.367995387425 Eh       

---------------
SCF CONVERGENCE
---------------

  Last Energy change         ...   -5.9595e-10  Tolerance :   1.0000e-08
  Last MAX-Density change    ...    1.6926e-05  Tolerance :   1.0000e-07
  Last RMS-Density change    ...    7.4721e-07  Tolerance :   5.0000e-09
  Last DIIS Error            ...    2.6994e-03  Tolerance :   5.0000e-07
  Last Orbital Gradient      ...    6.9984e-06  Tolerance :   1.0000e-05
  Last Orbital Rotation      ...    6.4412e-06  Tolerance :   1.0000e-05


----------------
ORBITAL ENERGIES
----------------

  NO   OCC          E(Eh)            E(eV) 
   0   2.0000     -24.734312      -673.0548 
   1   2.0000     -24.731804      -672.9866 
   2   2.0000     -24.730806      -672.9594 
   3   2.0000     -24.720048      -672.6667 
   4   2.0000     -24.719926      -672.6634 
   5   2.0000     -24.710838      -672.4161 
   6   2.0000     -24.707866      -672.3352 
   7   2.0000     -19.199883      -522.4554 
   8   2.0000     -10.420651      -283.5603 
   9   2.0000     -10.420226      -283.5488 
  10   2.0000     -10.365879      -282.0699 
  11   2.0000     -10.250630      -278.9338 
  12   2.0000      -1.312528       -35.7157 
  13   2.0000      -1.311073       -35.6761 
  14   2.0000      -1.291107       -35.1328 
  15   2.0000      -1.243985       -33.8506 
  16   2.0000      -1.230729       -33.4898 
  17   2.0000      -1.226982       -33.3879 
  18   2.0000      -1.220532       -33.2124 
  19   2.0000      -1.094076       -29.7713 
  20   2.0000      -0.820316       -22.3219 
  21   2.0000      -0.780642       -21.2424 
  22   2.0000      -0.691671       -18.8213 
  23   2.0000      -0.668949       -18.2030 
  24   2.0000      -0.622767       -16.9464 
  25   2.0000      -0.611385       -16.6366 
  26   2.0000      -0.608992       -16.5715 
  27   2.0000      -0.592547       -16.1240 
  28   2.0000      -0.587936       -15.9986 
  29   2.0000      -0.572943       -15.5906 
  30   2.0000      -0.563641       -15.3374 
  31   2.0000      -0.547172       -14.8893 
  32   2.0000      -0.499465       -13.5911 
  33   2.0000      -0.481139       -13.0924 
  34   2.0000      -0.467144       -12.7116 
  35   2.0000      -0.461997       -12.5716 
  36   2.0000      -0.461037       -12.5455 
  37   2.0000      -0.457713       -12.4550 
  38   2.0000      -0.453269       -12.3341 
  39   2.0000      -0.439911       -11.9706 
  40   2.0000      -0.432001       -11.7554 
  41   2.0000      -0.424805       -11.5595 
  42   2.0000      -0.422327       -11.4921 
  43   2.0000      -0.420016       -11.4292 
  44   2.0000      -0.413970       -11.2647 
  45   2.0000      -0.403832       -10.9888 
  46   2.0000      -0.389522       -10.5994 
  47   2.0000      -0.356601        -9.7036 
  48   2.0000      -0.319359        -8.6902 
  49   0.0000       0.054510         1.4833 
  50   0.0000       0.068087         1.8527 
  51   0.0000       0.093454         2.5430 
  52   0.0000       0.118674         3.2293 
  53   0.0000       0.122557         3.3349 
  54   0.0000       0.139301         3.7906 
  55   0.0000       0.192910         5.2494 
  56   0.0000       0.197856         5.3839 
  57   0.0000       0.206734         5.6255 
  58   0.0000       0.216159         5.8820 
  59   0.0000       0.219580         5.9751 
*Only the first 10 virtual orbitals were printed.

                    ********************************
                    * MULLIKEN POPULATION ANALYSIS *
                    ********************************

-----------------------
MULLIKEN ATOMIC CHARGES
-----------------------
   0 F :   -0.303136
   1 F :   -0.292562
   2 F :   -0.296697
   3 F :   -0.298277
   4 F :   -0.296428
   5 F :   -0.299669
   6 F :   -0.297543
   7 O :   -0.502049
   8 C :    0.839249
   9 C :   -0.221717
  10 C :    0.430793
  11 C :    0.923346
  12 H :    0.221660
  13 H :    0.208426
  14 H :    0.184603
Sum of atomic charges:   -0.0000000

--------------------------------
MULLIKEN REDUCED ORBITAL CHARGES
--------------------------------
  0 F s       :     3.982798  s :     3.982798
      pz      :     1.585781  p :     5.302979
      px      :     1.901217
      py      :     1.815982
      dz2     :     0.006047  d :     0.017358
      dxz     :     0.002981
      dyz     :     0.005728
      dx2y2   :     0.001446
      dxy     :     0.001156

  1 F s       :     3.984258  s :     3.984258
      pz      :     1.729199  p :     5.290680
      px      :     1.770350
      py      :     1.791131
      dz2     :     0.003040  d :     0.017624
      dxz     :     0.004471
      dyz     :     0.004333
      dx2y2   :     0.002601
      dxy     :     0.003179

  2 F s       :     3.971876  s :     3.971876
      pz      :     1.746706  p :     5.306811
      px      :     1.765028
      py      :     1.795076
      dz2     :     0.003252  d :     0.018010
      dxz     :     0.004065
      dyz     :     0.004283
      dx2y2   :     0.003357
      dxy     :     0.003053

  3 F s       :     3.975245  s :     3.975245
      pz      :     1.578881  p :     5.305332
      px      :     1.914612
      py      :     1.811839
      dz2     :     0.005923  d :     0.017700
      dxz     :     0.003332
      dyz     :     0.005870
      dx2y2   :     0.001498
      dxy     :     0.001077

  4 F s       :     3.975399  s :     3.975399
      pz      :     1.559444  p :     5.303594
      px      :     1.913722
      py      :     1.830428
      dz2     :     0.006345  d :     0.017435
      dxz     :     0.003753
      dyz     :     0.005444
      dx2y2   :     0.000976
      dxy     :     0.000917

  5 F s       :     3.976583  s :     3.976583
      pz      :     1.762889  p :     5.305704
      px      :     1.734678
      py      :     1.808137
      dz2     :     0.002940  d :     0.017381
      dxz     :     0.004523
      dyz     :     0.003348
      dx2y2   :     0.002932
      dxy     :     0.003639

  6 F s       :     3.974393  s :     3.974393
      pz      :     1.900145  p :     5.305692
      px      :     1.871160
      py      :     1.534387
      dz2     :     0.002377  d :     0.017459
      dxz     :     0.000727
      dyz     :     0.003559
      dx2y2   :     0.005821
      dxy     :     0.004975

  7 O s       :     3.895292  s :     3.895292
      pz      :     1.605385  p :     4.577793
      px      :     1.235066
      py      :     1.737342
      dz2     :     0.005106  d :     0.028963
      dxz     :     0.007812
      dyz     :     0.005558
      dx2y2   :     0.006110
      dxy     :     0.004377

  8 C s       :     2.853896  s :     2.853896
      pz      :     0.599845  p :     2.160986
      px      :     0.717079
      py      :     0.844062
      dz2     :     0.033265  d :     0.145869
      dxz     :     0.030743
      dyz     :     0.028380
      dx2y2   :     0.028938
      dxy     :     0.024543

  9 C s       :     3.248363  s :     3.248363
      pz      :     0.957627  p :     2.909638
      px      :     0.893915
      py      :     1.058096
      dz2     :     0.015463  d :     0.063717
      dxz     :     0.012081
      dyz     :     0.010074
      dx2y2   :     0.017823
      dxy     :     0.008276

 10 C s       :     3.059326  s :     3.059326
      pz      :     0.617369  p :     2.396969
      px      :     0.947812
      py      :     0.831788
      dz2     :     0.028087  d :     0.112912
      dxz     :     0.023258
      dyz     :     0.026403
      dx2y2   :     0.022551
      dxy     :     0.012613

 11 C s       :     2.796781  s :     2.796781
      pz      :     0.644553  p :     2.123045
      px      :     0.850460
      py      :     0.628031
      dz2     :     0.033710  d :     0.156828
      dxz     :     0.027778
      dyz     :     0.035083
      dx2y2   :     0.032456
      dxy     :     0.027800

 12 H s       :     0.778340  s :     0.778340

 13 H s       :     0.791574  s :     0.791574

 14 H s       :     0.815397  s :     0.815397



                     *******************************
                     * LOEWDIN POPULATION ANALYSIS *
                     *******************************

----------------------
LOEWDIN ATOMIC CHARGES
----------------------
   0 F :   -0.096794
   1 F :   -0.076620
   2 F :   -0.102764
   3 F :   -0.108003
   4 F :   -0.093934
   5 F :   -0.091819
   6 F :   -0.095680
   7 O :   -0.191136
   8 C :    0.220807
   9 C :   -0.165246
  10 C :    0.109431
  11 C :    0.244747
  12 H :    0.156890
  13 H :    0.151006
  14 H :    0.139114

-------------------------------
LOEWDIN REDUCED ORBITAL CHARGES
-------------------------------
  0 F s       :     3.742906  s :     3.742906
      pz      :     1.607393  p :     5.318497
      px      :     1.896657
      py      :     1.814448
      dz2     :     0.012064  d :     0.035390
      dxz     :     0.006090
      dyz     :     0.012646
      dx2y2   :     0.002712
      dxy     :     0.001878

  1 F s       :     3.740141  s :     3.740141
      pz      :     1.736812  p :     5.302148
      px      :     1.774316
      py      :     1.791020
      dz2     :     0.005289  d :     0.034331
      dxz     :     0.008806
      dyz     :     0.008901
      dx2y2   :     0.004981
      dxy     :     0.006355

  2 F s       :     3.740844  s :     3.740844
      pz      :     1.750286  p :     5.325325
      px      :     1.780678
      py      :     1.794361
      dz2     :     0.006065  d :     0.036595
      dxz     :     0.008589
      dyz     :     0.008422
      dx2y2   :     0.006893
      dxy     :     0.006625

  3 F s       :     3.744925  s :     3.744925
      pz      :     1.604195  p :     5.327462
      px      :     1.915014
      py      :     1.808254
      dz2     :     0.011685  d :     0.035615
      dxz     :     0.006993
      dyz     :     0.012057
      dx2y2   :     0.002831
      dxy     :     0.002049

  4 F s       :     3.742551  s :     3.742551
      pz      :     1.584942  p :     5.316836
      px      :     1.902765
      py      :     1.829129
      dz2     :     0.013155  d :     0.034547
      dxz     :     0.006945
      dyz     :     0.010870
      dx2y2   :     0.001957
      dxy     :     0.001621

  5 F s       :     3.740681  s :     3.740681
      pz      :     1.766036  p :     5.316817
      px      :     1.741462
      py      :     1.809319
      dz2     :     0.005374  d :     0.034321
      dxz     :     0.009659
      dyz     :     0.006732
      dx2y2   :     0.005260
      dxy     :     0.007296

  6 F s       :     3.741557  s :     3.741557
      pz      :     1.893313  p :     5.319330
      px      :     1.865987
      py      :     1.560030
      dz2     :     0.004881  d :     0.034793
      dxz     :     0.001159
      dyz     :     0.006291
      dx2y2   :     0.011889
      dxy     :     0.010572

  7 O s       :     3.496928  s :     3.496928
      pz      :     1.632199  p :     4.631910
      px      :     1.263784
      py      :     1.735928
      dz2     :     0.010026  d :     0.062297
      dxz     :     0.017098
      dyz     :     0.008694
      dx2y2   :     0.016317
      dxy     :     0.010162

  8 C s       :     2.843994  s :     2.843994
      pz      :     0.778570  p :     2.593399
      px      :     0.860375
      py      :     0.954455
      dz2     :     0.080336  d :     0.341801
      dxz     :     0.070077
      dyz     :     0.067972
      dx2y2   :     0.069849
      dxy     :     0.053567

  9 C s       :     2.946809  s :     2.946809
      pz      :     1.026193  p :     3.081528
      px      :     0.962011
      py      :     1.093324
      dz2     :     0.032237  d :     0.136908
      dxz     :     0.027407
      dyz     :     0.021047
      dx2y2   :     0.039049
      dxy     :     0.017168

 10 C s       :     2.912445  s :     2.912445
      pz      :     0.757947  p :     2.712151
      px      :     1.022668
      py      :     0.931536
      dz2     :     0.068460  d :     0.265973
      dxz     :     0.054440
      dyz     :     0.061217
      dx2y2   :     0.052373
      dxy     :     0.029482

 11 C s       :     2.836914  s :     2.836914
      pz      :     0.802591  p :     2.546395
      px      :     0.959756
      py      :     0.784048
      dz2     :     0.080855  d :     0.371944
      dxz     :     0.065585
      dyz     :     0.082695
      dx2y2   :     0.081311
      dxy     :     0.061499

 12 H s       :     0.843110  s :     0.843110

 13 H s       :     0.848994  s :     0.848994

 14 H s       :     0.860886  s :     0.860886



                      *****************************
                      * MAYER POPULATION ANALYSIS *
                      *****************************

  NA   - Mulliken gross atomic population
  ZA   - Total nuclear charge
  QA   - Mulliken gross atomic charge
  VA   - Mayer's total valence
  BVA  - Mayer's bonded valence
  FA   - Mayer's free valence

  ATOM       NA         ZA         QA         VA         BVA        FA
  0 F      9.3031     9.0000    -0.3031     1.0366     1.0366    -0.0000
  1 F      9.2926     9.0000    -0.2926     1.0669     1.0669    -0.0000
  2 F      9.2967     9.0000    -0.2967     1.0505     1.0505     0.0000
  3 F      9.2983     9.0000    -0.2983     1.0381     1.0381    -0.0000
  4 F      9.2964     9.0000    -0.2964     1.0540     1.0540    -0.0000
  5 F      9.2997     9.0000    -0.2997     1.0555     1.0555    -0.0000
  6 F      9.2975     9.0000    -0.2975     1.0554     1.0554     0.0000
  7 O      8.5020     8.0000    -0.5020     1.9189     1.9189     0.0000
  8 C      5.1608     6.0000     0.8392     3.8486     3.8486    -0.0000
  9 C      6.2217     6.0000    -0.2217     3.7452     3.7452    -0.0000
 10 C      5.5692     6.0000     0.4308     3.7590     3.7590    -0.0000
 11 C      5.0767     6.0000     0.9233     3.9229     3.9229     0.0000
 12 H      0.7783     1.0000     0.2217     0.9215     0.9215    -0.0000
 13 H      0.7916     1.0000     0.2084     0.9222     0.9222     0.0000
 14 H      0.8154     1.0000     0.1846     0.9186     0.9186    -0.0000

  Mayer bond orders larger than 0.100000
B(  0-F ,  8-C ) :   0.9314 B(  1-F ,  8-C ) :   0.9782 B(  2-F , 10-C ) :   0.9212 
B(  3-F , 10-C ) :   0.9593 B(  4-F , 11-C ) :   0.9792 B(  5-F , 11-C ) :   0.9652 
B(  6-F , 11-C ) :   0.9889 B(  7-O ,  8-C ) :   0.9574 B(  7-O ,  9-C ) :   0.8742 
B(  8-C , 10-C ) :   0.9021 B(  9-C , 11-C ) :   0.9703 B(  9-C , 12-H ) :   0.8713 
B(  9-C , 13-H ) :   0.8979 B( 10-C , 14-H ) :   0.8968 

-------
TIMINGS
-------

Total SCF time: 0 days 0 hours 0 min 41 sec 

Total time                  ....      41.282 sec
Sum of individual times     ....      39.239 sec  ( 95.1%)

SCF preparation             ....       0.088 sec  (  0.2%)
Fock matrix formation       ....      39.048 sec  ( 94.6%)
  Startup                   ....       0.003 sec  (  0.0% of F)
  Split-RI-J                ....       3.348 sec  (  8.6% of F)
  Chain of spheres X        ....      31.770 sec  ( 81.4% of F)
  XC integration            ....       5.862 sec  ( 15.0% of F)
    XC Preparation          ....       0.000 sec  (  0.0% of XC)
    Basis function eval.    ....       2.271 sec  ( 38.7% of XC)
    Density eval.           ....       1.411 sec  ( 24.1% of XC)
    XC-Functional eval.     ....       0.515 sec  (  8.8% of XC)
    XC-Potential eval.      ....       1.448 sec  ( 24.7% of XC)
Diagonalization             ....       0.000 sec  (  0.0%)
Density matrix formation    ....       0.013 sec  (  0.0%)
Total Energy calculation    ....       0.003 sec  (  0.0%)
Population analysis         ....       0.007 sec  (  0.0%)
Orbital Transformation      ....       0.014 sec  (  0.0%)
Orbital Orthonormalization  ....       0.000 sec  (  0.0%)
DIIS solution               ....       0.036 sec  (  0.1%)
SOSCF solution              ....       0.031 sec  (  0.1%)
Finished LeanSCF after  41.3 sec

Maximum memory used throughout the entire LEANSCF-calculation: 21.6 MB

------------------------------------------------------------------------------
                         ORCA PROPERTY INTEGRAL CALCULATIONS
------------------------------------------------------------------------------

GBWName                                   ... HFE_347pcf2_gauche2.gbw
Number of atoms                           ...     15
Number of basis functions                 ...    174
Max core memory                           ...   4096 MB

Dipole integrals                          ... YES
Quadrupole integrals                      ...  NO
Linear momentum integrals                 ...  NO
Angular momentum integrals                ...  NO
Higher moments length integrals           ...  NO
Higher moments velocity integrals         ...  NO
Kinetic energy integrals                  ...  NO
GIAO right hand sides                     ...  NO
GIAO dipole derivative integrals          ...  NO
SOC integrals                             ...  NO
EPR diamagnetic integrals (GIAO)          ...  NO
EPR gauge integrals                       ...  NO
Field gradient integrals                  ...  NO (   0 nuclei)
Spin-dipole/Fermi contact integrals       ...  NO (   0 nuclei)
Contact density integrals                 ...  NO (   0 nuclei)
Nucleus-orbit integrals                   ...  NO (   0 nuclei)
Geometric perturbations                   ...  NO (  15 nuclei)

Choice of electric origin   ... Center of mass
Position of electric origin ... ( -0.0293,  0.0155, -0.0075) 
Choice of magnetic origin   ... GIAO
Position of magnetic origin ... (  0.0000,  0.0000,  0.0000) 

Calculating integrals                     ... Electric Dipole (Length)     done (  0.0 sec)

Property integrals calculated in   0.0 sec

Maximum memory used throughout the entire PROPINT-calculation: 12.7 MB

-------------------------   --------------------
FINAL SINGLE POINT ENERGY      -927.967419429791
-------------------------   --------------------

------------------------------------------------------------------------------
                         ORCA SCF GRADIENT CALCULATION
------------------------------------------------------------------------------

Nuc. rep. gradient        (SHARK) ... done (  0.0 sec)
HCore & Overlap gradient  (SHARK) ... done (  0.2 sec)
Split-RIJ-J gradient      (SHARK) ... done (  1.3 sec)
done ( 22.4 sec)
XC gradient                       ... done (  4.1 sec)

------------------
CARTESIAN GRADIENT
------------------

   1   F   :   -0.004944422   -0.002138465    0.000381853
   2   F   :    0.015163310   -0.010409651   -0.008238864
   3   F   :   -0.018457812   -0.005198360   -0.011644483
   4   F   :   -0.001685731    0.005905859   -0.001316041
   5   F   :    0.000199312    0.002377845   -0.007207533
   6   F   :   -0.008451347    0.002621728    0.001537940
   7   F   :    0.002447415   -0.005379718    0.000009476
   8   O   :   -0.032233354    0.004498033   -0.004656183
   9   C   :    0.037748208    0.015453363    0.012366718
  10   C   :    0.017860097   -0.008750047    0.002469267
  11   C   :   -0.014983962   -0.019933883    0.007099731
  12   C   :    0.008396882    0.018743355    0.012243372
  13   H   :   -0.001627961    0.003225636   -0.002870278
  14   H   :    0.002000384   -0.001699489    0.000852939
  15   H   :   -0.001431020    0.000683794   -0.001027914

Difference to translation invariance:
           :   -0.0000000001   -0.0000000000   -0.0000000001

Difference to rotation invariance:
           :   -0.0001337549   -0.0001412540    0.0000595031

Norm of the Cartesian gradient     ...    0.0756771660
RMS gradient                       ...    0.0112812858
MAX gradient                       ...    0.0377482079

-------
TIMINGS
-------

Total SCF gradient time     ....       27.991 sec

Densities                   ....       0.000 sec  (  0.0%)
One electron gradient       ....       0.174 sec  (  0.6%)
RI-J Coulomb gradient       ....       1.293 sec  (  4.6%)
COSX gradient               ....      22.401 sec  ( 80.0%)
XC gradient                 ....       4.123 sec  ( 14.7%)

Maximum memory used throughout the entire SCFGRAD-calculation: 25.5 MB
------------------------------------------------------------------------------
                         ORCA GEOMETRY RELAXATION STEP
------------------------------------------------------------------------------

Reading the OPT-File                    .... done
Getting information on internals        .... done
Copying old internal coords+grads       .... done
Making the new internal coordinates     .... (2022 redundants) done
Validating the new internal coordinates .... (2022 redundants) done
Calculating the B-matrix                .... done
Calculating the G,G- and P matrices     .... done
Transforming gradient to internals      .... done
Projecting the internal gradient        .... done
Number of atoms                         ....  15
Number of internal coordinates          ....  57
Current Energy                          ....  -927.967419430 Eh
Current gradient norm                   ....     0.075677166 Eh/bohr
Maximum allowed component of the step   ....  0.300
Current trust radius                    ....  0.300
Evaluating the initial hessian          ....  (Almloef) done
Projecting the Hessian                  .... done
Forming the augmented Hessian           .... done
Diagonalizing the augmented Hessian     .... done
Last element of RFO vector              ....  0.900906070
Lowest eigenvalues of augmented Hessian:
 -0.057319572  0.013131391  0.014792739  0.019698992  0.023913384
Length of the computed step             ....  0.481752905
Warning: the length of the step is outside the trust region - taking restricted step instead
The input lambda is                     ....     0.012131
   iter:   5  x=    0.003285  g= 1996.387010 f(x)=     7.343835
   iter:  10  x=   -0.095566  g=    3.703978 f(x)=     0.151384
   iter:  15  x=   -0.175470  g=    0.465621 f(x)=     0.000000
The output lambda is                    ....    -0.175470 (17 iterations)
The final length of the internal step   ....  0.300000000
Converting the step to Cartesian space:
 Initial RMS(Int)=    0.0397359707
Transforming coordinates:
 Iter   0:  RMS(Cart)=    0.2700890834 RMS(Int)=    1.1704315881
 Iter   5:  RMS(Cart)=    0.0000611640 RMS(Int)=    0.0000505708
 Iter  10:  RMS(Cart)=    0.0000000589 RMS(Int)=    0.0000000459
done
Storing new coordinates                 .... done

                                .--------------------.
          ----------------------|Geometry convergence|-------------------------
          Item                value                   Tolerance       Converged
          ---------------------------------------------------------------------
          RMS gradient        0.0190704417            0.0001000000      NO
          MAX gradient        0.0817421334            0.0003000000      NO
          RMS step            0.0397359707            0.0020000000      NO
          MAX step            0.1475283791            0.0040000000      NO
          -------------------------------------------------------------------------
          ........................................................
          Max(Bonds)      0.0275      Max(Angles)    8.45
          Max(Dihed)        5.31      Max(Improp)    0.00
          ---------------------------------------------------------------------

The optimization has not yet converged - more geometry cycles are needed


    ---------------------------------------------------------------------------
                         Redundant Internal Coordinates
                            (Angstroem and degrees)

        Definition                    Value    dE/dq     Step     New-Value
    ----------------------------------------------------------------------------
     1. B(C   8,F   1)                1.3540  0.019173 -0.0132    1.3408   
     2. B(C   8,O   7)                1.4217  0.010205 -0.0080    1.4137   
     3. B(C   8,F   0)                1.3550  0.001012 -0.0007    1.3543   
     4. B(C   9,O   7)                1.4207 -0.002648  0.0021    1.4227   
     5. B(C  10,F   3)                1.3555  0.004036 -0.0028    1.3527   
     6. B(C  10,C   8)                1.5052 -0.030435  0.0275    1.5328   
     7. B(C  10,F   2)                1.3559  0.000207 -0.0001    1.3558   
     8. B(C  11,F   6)                1.3498  0.004300 -0.0029    1.3468   
     9. B(C  11,F   5)                1.3498  0.007530 -0.0051    1.3446   
    10. B(C  11,C   9)                1.5066 -0.005399  0.0049    1.5115   
    11. B(C  11,F   4)                1.3510  0.007510 -0.0051    1.3459   
    12. B(H  12,C   9)                1.0875  0.002882 -0.0028    1.0847   
    13. B(H  13,C   9)                1.0942  0.001551 -0.0015    1.0927   
    14. B(H  14,C  10)                1.0929 -0.001648  0.0016    1.0945   
    15. A(C   8,O   7,C   9)          112.56 -0.081742    8.19    120.75   
    16. A(F   1,C   8,C  10)          110.06  0.024299   -3.04    107.03   
    17. A(F   1,C   8,O   7)          109.61  0.038003   -4.44    105.17   
    18. A(O   7,C   8,C  10)          110.34 -0.078469    8.45    118.80   
    19. A(F   0,C   8,C  10)          109.68  0.016035   -1.01    108.67   
    20. A(F   0,C   8,F   1)          107.97 -0.006567   -0.33    107.64   
    21. A(F   0,C   8,O   7)          109.13  0.008391    0.18    109.31   
    22. A(H  12,C   9,H  13)          111.29  0.002690   -0.17    111.11   
    23. A(C  11,C   9,H  13)          110.80  0.002959   -0.63    110.17   
    24. A(O   7,C   9,H  13)          111.36 -0.005623    0.39    111.76   
    25. A(C  11,C   9,H  12)          101.41 -0.011495    1.50    102.91   
    26. A(O   7,C   9,H  12)          112.47 -0.003473    0.58    113.04   
    27. A(O   7,C   9,C  11)          109.08  0.015217   -1.66    107.42   
    28. A(F   3,C  10,H  14)          109.09  0.005434   -0.86    108.22   
    29. A(F   2,C  10,H  14)          109.06  0.006745   -1.01    108.05   
    30. A(F   2,C  10,F   3)          106.81 -0.001825    0.86    107.68   
    31. A(F   3,C  10,C   8)          109.51  0.011637   -0.96    108.55   
    32. A(C   8,C  10,H  14)          112.52  0.007984   -1.20    111.33   
    33. A(F   2,C  10,C   8)          109.68 -0.030331    3.25    112.93   
    34. A(F   4,C  11,C   9)          110.61 -0.002910    0.26    110.87   
    35. A(F   5,C  11,F   6)          108.10  0.002568   -0.18    107.91   
    36. A(F   4,C  11,F   6)          107.71 -0.000515    0.11    107.83   
    37. A(F   4,C  11,F   5)          107.74 -0.002771    0.14    107.87   
    38. A(F   6,C  11,C   9)          111.27 -0.008890    0.96    112.23   
    39. A(F   5,C  11,C   9)          111.27  0.012416   -1.28    109.99   
    40. D(F   1,C   8,O   7,C   9)    178.64  0.012589   -2.82    175.82   
    41. D(F   0,C   8,O   7,C   9)     60.59 -0.006550    0.07     60.65   
    42. D(C  10,C   8,O   7,C   9)    -60.00  0.017135   -4.06    -64.05   
    43. D(H  13,C   9,O   7,C   8)    -56.74 -0.001589    1.10    -55.63   
    44. D(H  12,C   9,O   7,C   8)     68.97 -0.005152    1.63     70.60   
    45. D(C  11,C   9,O   7,C   8)   -179.34 -0.012036    2.78   -176.56   
    46. D(F   2,C  10,C   8,F   0)    -61.72  0.002653    0.40    -61.31   
    47. D(F   3,C  10,C   8,O   7)    -58.38 -0.013177    2.93    -55.44   
    48. D(F   3,C  10,C   8,F   1)     62.72 -0.000851    0.90     63.62   
    49. D(F   3,C  10,C   8,F   0)   -178.63  0.015658   -1.97   -180.60   
    50. D(F   2,C  10,C   8,O   7)     58.54 -0.026183    5.31     63.85   
    51. D(F   2,C  10,C   8,F   1)    179.63 -0.013856    3.28    182.91   
    52. D(F   4,C  11,C   9,H  13)    177.50 -0.000945    0.20    177.71   
    53. D(F   4,C  11,C   9,H  12)     59.28  0.000872   -0.13     59.15   
    54. D(F   4,C  11,C   9,O   7)    -59.56  0.004239   -0.84    -60.40   
    55. D(F   5,C  11,C   9,H  13)     57.79 -0.003668    0.70     58.49   
    56. D(F   5,C  11,C   9,H  12)    -60.43 -0.001851    0.37    -60.06   
    57. D(F   5,C  11,C   9,O   7)   -179.27  0.001516   -0.35   -179.62   
    ----------------------------------------------------------------------------

Geometry step timings:
Preparation and reading OPT file:      0.000 s ( 1.345 %)
Internal coordinates            :      0.000 s ( 1.320 %)
B/P matrices and projection     :      0.001 s (24.384 %)
Hessian update/contruction      :      0.001 s (26.650 %)
Making the step                 :      0.001 s (30.884 %)
Converting the step to Cartesian:      0.000 s ( 3.014 %)
Storing new data                :      0.000 s ( 1.569 %)
Checking convergence            :      0.000 s ( 1.669 %)
Final printing                  :      0.000 s ( 9.091 %)
Total time                      :      0.004 s

Time for energy+gradient        :     71.485 s
Time for complete geometry iter :     71.543 s

         *************************************************************
         *                GEOMETRY OPTIMIZATION CYCLE   2            *
         *************************************************************
---------------------------------
CARTESIAN COORDINATES (ANGSTROEM)
---------------------------------
  F      1.600999   -1.191607    1.216455
  F      2.050411   -1.248725   -0.909968
  F      1.758506    1.607925    1.135011
  F      2.094914    1.465601   -1.020820
  F     -2.293080    0.474035   -1.291021
  F     -3.173417    0.498893    0.697579
  F     -2.535635   -1.384844   -0.186076
  O      0.088739   -0.488554   -0.302007
  C      1.457976   -0.521617    0.048266
  C     -0.865278    0.133813    0.550446
  C      2.225371    0.801302    0.150333
  C     -2.229090   -0.078898   -0.065604
  H     -0.774627    1.214470    0.571770
  H     -0.838823   -0.283378    1.559977
  H      3.291435    0.629985    0.329462

----------------------------
CARTESIAN COORDINATES (A.U.)
----------------------------
  NO LB      ZA    FRAG     MASS         X           Y           Z
   0 F     9.0000    0    18.998    3.025449   -2.251810    2.298767
   1 F     9.0000    0    18.998    3.874716   -2.359748   -1.719591
   2 F     9.0000    0    18.998    3.323095    3.038537    2.144859
   3 F     9.0000    0    18.998    3.958814    2.769584   -1.929071
   4 F     9.0000    0    18.998   -4.333293    0.895796   -2.439677
   5 F     9.0000    0    18.998   -5.996889    0.942770    1.318233
   6 F     9.0000    0    18.998   -4.791656   -2.616975   -0.351632
   7 O     8.0000    0    15.999    0.167692   -0.923232   -0.570711
   8 C     6.0000    0    12.011    2.755175   -0.985714    0.091209
   9 C     6.0000    0    12.011   -1.635138    0.252869    1.040191
  10 C     6.0000    0    12.011    4.205341    1.514241    0.284087
  11 C     6.0000    0    12.011   -4.212369   -0.149096   -0.123973
  12 H     1.0000    0     1.008   -1.463834    2.295015    1.080488
  13 H     1.0000    0     1.008   -1.585146   -0.535506    2.947928
  14 H     1.0000    0     1.008    6.219911    1.190499    0.622594

--------------------------------
INTERNAL COORDINATES (ANGSTROEM)
--------------------------------
 F      0   0   0     0.000000000000     0.00000000     0.00000000
 F      1   0   0     2.174145897145     0.00000000     0.00000000
 F      1   2   0     2.805141084794    89.21019644     0.00000000
 F      3   1   2     2.186557499970    88.41296472     2.94619873
 F      4   3   1     4.506740145101    85.62030876    74.00623301
 F      5   4   3     2.174889120588   109.68045223     0.51299974
 F      5   4   3     2.176044164005   105.42848756   297.36990666
 O      2   1   3     2.189893977535    62.23718625   289.44114394
 C      2   1   3     1.340849588638    36.43437003   328.57116826
 C      8   2   1     1.422731115391   156.76015076    28.06625146
 C      4   3   1     1.352742135653    36.21608566   334.29522718
 C      6   5   4     1.344635483439    36.08529705   300.69008421
 H     10   8   2     1.084661889126   113.05206769    76.72705229
 H     10   8   2     1.092657622870   111.73575464   310.49251180
 H     11   4   3     1.094499769771   108.20950299   243.45757020

---------------------------
INTERNAL COORDINATES (A.U.)
---------------------------
 F      0   0   0     0.000000000000     0.00000000     0.00000000
 F      1   0   0     4.108540320792     0.00000000     0.00000000
 F      1   2   0     5.300948417272    89.21019644     0.00000000
 F      3   1   2     4.131994851015    88.41296472     2.94619873
 F      4   3   1     8.516504630989    85.62030876    74.00623301
 F      5   4   3     4.109944809556   109.68045223     0.51299974
 F      5   4   3     4.112127525287   105.42848756   297.36990666
 O      2   1   3     4.138299879864    62.23718625   289.44114394
 C      2   1   3     2.533838509306    36.43437003   328.57116826
 C      8   2   1     2.688572170297   156.76015076    28.06625146
 C      4   3   1     2.556312166200    36.21608566   334.29522718
 C      6   5   4     2.540992813653    36.08529705   300.69008421
 H     10   8   2     2.049713918349   113.05206769    76.72705229
 H     10   8   2     2.064823665365   111.73575464   310.49251180
 H     11   4   3     2.068304818506   108.20950299   243.45757020

------------------------------------------------------------------------------
                   ___                                                        
                  /   \      - P O W E R E D   B Y -                         
                 /     \                                                     
                 |  |  |   _    _      __       _____    __    __             
                 |  |  |  | |  | |    /  \     |  _  \  |  |  /  |          
                  \  \/   | |  | |   /    \    | | | |  |  | /  /          
                 / \  \   | |__| |  /  /\  \   | |_| |  |  |/  /          
                |  |  |   |  __  | /  /__\  \  |    /   |      \           
                |  |  |   | |  | | |   __   |  |    \   |  |\   \          
                \     /   | |  | | |  |  |  |  | |\  \  |  | \   \       
[...]
     25       0.002854  -0.005433  -0.009349   0.152313  -0.073802  -0.013101
     26       0.054750  -0.047662  -0.028371   0.049499  -0.017632   0.011426
     27       0.058283  -0.059630   0.012419  -0.081908  -0.195409   0.014005
     28      -0.016896  -0.008705   0.004565  -0.016485  -0.016341   0.050987
     29       0.028693   0.009742   0.001805  -0.000015   0.000186   0.061058
     30      -0.016804   0.019890  -0.034598  -0.084955   0.015398   0.001362
     31      -0.021899   0.012239  -0.004185  -0.222742   0.089389   0.007172
     32      -0.004617   0.008035   0.135533  -0.012199   0.021180  -0.006758
     33      -0.149546   0.089184  -0.009834   0.074119   0.127851  -0.007269
     34       0.084017   0.230698   0.001324   0.009099   0.018040   0.005568
     35      -0.264791  -0.016049   0.003803  -0.004033  -0.002911   0.006652
     36      -0.393162  -0.734066  -0.058287   0.322696   0.594873  -0.099967
     37       0.015118   0.006339   0.005095  -0.034153  -0.033428  -0.022157
     38       0.095959   0.118477  -0.010923  -0.119013  -0.070237  -0.697578
     39       0.772108   0.380857  -0.042379   0.293273   0.622423   0.005852
     40       0.098236  -0.101847  -0.025897  -0.033487   0.010374  -0.684094
     41      -0.093968  -0.127891   0.005220  -0.086197  -0.167775  -0.157364
     42      -0.070473   0.096430   0.269458   0.178651  -0.073033  -0.018411
     43      -0.254531   0.352259   0.026140   0.805544  -0.368841  -0.044149
     44      -0.038668   0.064888  -0.948051   0.012793  -0.099942   0.018361
                 42         43         44    
      0       0.000064  -0.000017   0.000242
      1       0.000075   0.000436  -0.000020
      2      -0.000365  -0.000322  -0.000324
      3      -0.000170  -0.000234  -0.000084
      4       0.000066   0.000449   0.000008
      5       0.000031   0.000315   0.000010
      6       0.000321  -0.000290   0.000041
      7      -0.000137  -0.000015   0.000070
      8      -0.000150  -0.000812  -0.000115
      9      -0.000003  -0.000676  -0.000019
     10      -0.000048  -0.000073   0.000042
     11      -0.000027   0.000483  -0.000037
     12      -0.000051   0.000030  -0.000324
     13      -0.000102   0.000009   0.000160
     14      -0.000101   0.000026  -0.000574
     15       0.000433   0.000022   0.000012
     16      -0.000230   0.000009   0.000177
     17      -0.000241  -0.000002  -0.000184
     18      -0.000097   0.000030   0.000112
     19      -0.000348   0.000060   0.000489
     20      -0.000037   0.000004  -0.000151
     21      -0.001888  -0.000500  -0.000044
     22      -0.000023   0.000030   0.000212
     23       0.000641  -0.000249  -0.000526
     24       0.001523   0.000322  -0.000053
     25      -0.000446  -0.002497   0.000016
     26       0.000920  -0.000002   0.000637
     27       0.012070  -0.000477   0.013423
     28       0.056617  -0.001548  -0.063600
     29       0.036290  -0.001568   0.069851
     30       0.002187   0.080301   0.000472
     31      -0.000118  -0.020182  -0.000193
     32       0.001083   0.022034   0.000282
     33      -0.001955  -0.000094   0.000086
     34       0.000612  -0.000087  -0.002059
     35      -0.000208  -0.000028   0.001666
     36      -0.006804  -0.000268   0.012141
     37      -0.827413   0.024662   0.539343
     38       0.078324  -0.002482  -0.040698
     39      -0.106581   0.004464  -0.171877
     40       0.159224  -0.006917   0.222926
     41      -0.516459   0.021570  -0.786717
     42      -0.030774  -0.928728  -0.005162
     43       0.007002   0.255017   0.001398
     44      -0.009087  -0.252840  -0.001414


-----------
IR SPECTRUM
-----------

 Mode   freq       eps      Int      T**2         TX        TY        TZ
       cm**-1   L/(mol*cm) km/mol    a.u.
----------------------------------------------------------------------------
  6:     27.18   0.000030    0.15  0.000339  (-0.014243 -0.001564  0.011559)
  7:     37.91   0.000119    0.60  0.000978  (-0.005369 -0.018023  0.024978)
  8:     79.37   0.000469    2.37  0.001846  (-0.006714 -0.018587  0.038144)
  9:     91.11   0.000110    0.56  0.000378  ( 0.008052  0.015114 -0.009197)
 10:    150.69   0.000381    1.92  0.000789  (-0.012349 -0.019418 -0.016095)
 11:    196.90   0.000852    4.31  0.001351  (-0.024662  0.027169 -0.002087)
 12:    211.12   0.000375    1.90  0.000554  (-0.002575 -0.012068  0.020051)
 13:    293.67   0.000545    2.75  0.000579  ( 0.021380 -0.006484  0.008928)
 14:    325.47   0.000122    0.62  0.000117  (-0.008217 -0.002572 -0.006545)
 15:    358.18   0.000075    0.38  0.000065  ( 0.002884 -0.006239  0.004234)
 16:    365.86   0.000284    1.44  0.000242  ( 0.004057  0.014722 -0.003052)
 17:    440.50   0.000281    1.42  0.000199  (-0.004453  0.013375 -0.000341)
 18:    510.56   0.002528   12.77  0.001545  (-0.037191  0.012486  0.002462)
 19:    528.94   0.000357    1.80  0.000210  ( 0.002675 -0.007074  0.012380)
 20:    542.92   0.001475    7.45  0.000848  ( 0.026572 -0.002088  0.011716)
 21:    575.23   0.005896   29.79  0.003198  ( 0.045242  0.033117  0.007399)
 22:    612.72   0.000254    1.29  0.000130  ( 0.009636 -0.005641 -0.002218)
 23:    663.83   0.002753   13.91  0.001294  ( 0.031909  0.015358  0.006343)
 24:    712.15   0.006612   33.42  0.002897  (-0.050572 -0.016654 -0.007909)
 25:    862.54   0.000037    0.19  0.000013  (-0.001324  0.002620  0.002178)
 26:    889.11   0.011692   59.09  0.004104  (-0.046904 -0.040474 -0.016297)
 27:    994.10   0.005040   25.47  0.001582  (-0.006411  0.028589 -0.026904)
 28:   1125.69   0.009442   47.72  0.002618  (-0.041701  0.019086  0.022678)
 29:   1141.43   0.022004  111.20  0.006016  (-0.012572  0.076378  0.004924)
 30:   1176.28   0.015685   79.26  0.004161  ( 0.046695 -0.019791  0.039862)
 31:   1181.33   0.040219  203.25  0.010624  ( 0.007603  0.055796 -0.086333)
 32:   1221.91   0.050618  255.80  0.012927  ( 0.082633 -0.077504 -0.009608)
 33:   1228.71   0.045772  231.31  0.011625  (-0.052152 -0.005924  0.094181)
 34:   1264.15   0.038420  194.16  0.009484  ( 0.028901 -0.040554 -0.083692)
 35:   1303.80   0.062132  313.99  0.014871  ( 0.112140  0.038274  0.028828)
 36:   1347.55   0.019367   97.87  0.004485  ( 0.025145  0.007715 -0.061589)
 37:   1365.28   0.040302  203.67  0.009212  (-0.060228  0.074358 -0.007447)
 38:   1405.32   0.003864   19.53  0.000858  (-0.013349 -0.004894  0.025611)
 39:   1445.44   0.001932    9.76  0.000417  ( 0.017191 -0.002127  0.010818)
 40:   1468.78   0.006369   32.19  0.001353  ( 0.036325  0.005777  0.000571)
 41:   1516.01   0.001128    5.70  0.000232  (-0.010415 -0.008629 -0.007020)
 42:   3109.01   0.002544   12.86  0.000255  (-0.010129  0.011254  0.005108)
 43:   3130.16   0.006656   33.64  0.000664  ( 0.023143 -0.010033  0.005224)
 44:   3178.52   0.000791    4.00  0.000078  (-0.001101 -0.007025  0.005203)

* The epsilon (eps) is given for a Dirac delta lineshape.
** The dipole moment derivative (T) already includes vibrational overlap.

The first frequency considered to be a vibration is 6
The total number of vibrations considered is 39


--------------------------
THERMOCHEMISTRY AT 298.15K
--------------------------

Temperature         ...   298.15 K
Pressure            ...     1.00 atm
Total Mass          ...   200.05 AMU
Quasi RRHO          ...     True
Cut-Off Frequency   ...     1.00 cm^-1

Throughout the following assumptions are being made:
  (1) The electronic state is orbitally nondegenerate
  (2) There are no thermally accessible electronically excited states
  (3) Hindered rotations indicated by low frequency modes are not
      treated as such but are treated as vibrations and this may
      cause some error
  (4) All equations used are the standard statistical mechanics
      equations for an ideal gas
  (5) All vibrations are strictly harmonic

freq.      27.18  E(vib)   ...       0.55 
freq.      37.91  E(vib)   ...       0.54 
freq.      79.37  E(vib)   ...       0.49 
freq.      91.11  E(vib)   ...       0.47 
freq.     150.69  E(vib)   ...       0.40 
freq.     196.90  E(vib)   ...       0.35 
freq.     211.12  E(vib)   ...       0.34 
freq.     293.67  E(vib)   ...       0.27 
freq.     325.47  E(vib)   ...       0.24 
freq.     358.18  E(vib)   ...       0.22 
freq.     365.86  E(vib)   ...       0.22 
freq.     440.50  E(vib)   ...       0.17 
freq.     510.56  E(vib)   ...       0.14 
freq.     528.94  E(vib)   ...       0.13 
freq.     542.92  E(vib)   ...       0.12 
freq.     575.23  E(vib)   ...       0.11 
freq.     612.72  E(vib)   ...       0.10 
freq.     663.83  E(vib)   ...       0.08 
freq.     712.15  E(vib)   ...       0.07 
freq.     862.54  E(vib)   ...       0.04 
freq.     889.11  E(vib)   ...       0.04 
freq.     994.10  E(vib)   ...       0.02 
freq.    1125.69  E(vib)   ...       0.01 
freq.    1141.43  E(vib)   ...       0.01 
freq.    1176.28  E(vib)   ...       0.01 
freq.    1181.33  E(vib)   ...       0.01 
freq.    1221.91  E(vib)   ...       0.01 
freq.    1228.71  E(vib)   ...       0.01 
freq.    1264.15  E(vib)   ...       0.01 
freq.    1303.80  E(vib)   ...       0.01 
freq.    1347.55  E(vib)   ...       0.01 
freq.    1365.28  E(vib)   ...       0.01 
freq.    1405.32  E(vib)   ...       0.00 
freq.    1445.44  E(vib)   ...       0.00 
freq.    1468.78  E(vib)   ...       0.00 
freq.    1516.01  E(vib)   ...       0.00 
freq.    3109.01  E(vib)   ...       0.00 
freq.    3130.16  E(vib)   ...       0.00 
freq.    3178.52  E(vib)   ...       0.00 

------------
INNER ENERGY
------------

The inner energy is: U= E(el) + E(ZPE) + E(vib) + E(rot) + E(trans)
    E(el)   - is the total energy from the electronic structure calculation
              = E(kin-el) + E(nuc-el) + E(el-el) + E(nuc-nuc)
    E(ZPE)  - the the zero temperature vibrational energy from the frequency calculation
    E(vib)  - the the finite temperature correction to E(ZPE) due to population
              of excited vibrational states
    E(rot)  - is the rotational thermal energy
    E(trans)- is the translational thermal energy

Summary of contributions to the inner energy U:
Electronic energy                ...   -927.98427865 Eh
Zero point energy                ...      0.08447308 Eh      53.01 kcal/mol
Thermal vibrational correction   ...      0.00831752 Eh       5.22 kcal/mol
Thermal rotational correction    ...      0.00141627 Eh       0.89 kcal/mol
Thermal translational correction ...      0.00141627 Eh       0.89 kcal/mol
-----------------------------------------------------------------------
Total thermal energy                   -927.88865551 Eh


Summary of corrections to the electronic energy:
(perhaps to be used in another calculation)
Total thermal correction                  0.01115007 Eh       7.00 kcal/mol
Non-thermal (ZPE) correction              0.08447308 Eh      53.01 kcal/mol
-----------------------------------------------------------------------
Total correction                          0.09562314 Eh      60.00 kcal/mol


--------
ENTHALPY
--------

The enthalpy is H = U + kB*T
                kB is Boltzmann's constant
Total thermal energy              ...   -927.88865551 Eh 
Thermal Enthalpy correction       ...      0.00094421 Eh       0.59 kcal/mol
-----------------------------------------------------------------------
Total Enthalpy                    ...   -927.88771130 Eh


Note: Only C1 symmetry has been detected, increase convergence thresholds 
      if your molecule has a higher symmetry. Symmetry factor of 1.0 is   
      used for the rotational entropy correction. 
 

Note: Rotational entropy computed according to Herzberg 
Infrared and Raman Spectra, Chapter V,1, Van Nostrand Reinhold, 1945 
Point Group:  C1, Symmetry Number:   1  
Rotational constants in cm-1:     0.051408     0.017445     0.016462 

Vibrational entropy computed according to the QRRHO of S. Grimme
Chem.Eur.J. 2012 18 9955 using a reference frequency of 100.0 cm-1


-------
ENTROPY
-------

The entropy contributions are T*S = T*(S(el)+S(vib)+S(rot)+S(trans))
     S(el)   - electronic entropy
     S(vib)  - vibrational entropy
     S(rot)  - rotational entropy
     S(trans)- translational entropy
The entropies will be listed as multiplied by the temperature to get
units of energy

Electronic entropy                ...      0.00000000 Eh      0.00 kcal/mol
Vibrational entropy               ...      0.01490696 Eh      9.35 kcal/mol
Rotational entropy                ...      0.01476206 Eh      9.26 kcal/mol
Translational entropy             ...      0.01985330 Eh     12.46 kcal/mol
-----------------------------------------------------------------------
Final entropy term                ...      0.04952232 Eh     31.08 kcal/mol

In case the symmetry of your molecule has not been determined correctly
or in case you have a reason to use a different symmetry number we print 
out the resulting rotational entropy values for sn=1,12:

 non-linear molecules -----------------------------------
|  sn= 1 | S(rot)=       0.01476206 Eh      9.26 kcal/mol|
|  sn= 2 | S(rot)=       0.01410760 Eh      8.85 kcal/mol|
|  sn= 3 | S(rot)=       0.01372477 Eh      8.61 kcal/mol|
|  sn= 4 | S(rot)=       0.01345315 Eh      8.44 kcal/mol|
|  sn= 5 | S(rot)=       0.01324246 Eh      8.31 kcal/mol|
|  sn= 6 | S(rot)=       0.01307031 Eh      8.20 kcal/mol|
|  sn= 7 | S(rot)=       0.01292477 Eh      8.11 kcal/mol|
|  sn= 8 | S(rot)=       0.01279869 Eh      8.03 kcal/mol|
|  sn= 9 | S(rot)=       0.01268748 Eh      7.96 kcal/mol|
|  sn=10 | S(rot)=       0.01258800 Eh      7.90 kcal/mol|
|  sn=11 | S(rot)=       0.01249801 Eh      7.84 kcal/mol|
|  sn=12 | S(rot)=       0.01241586 Eh      7.79 kcal/mol|
 linear molecules ---------------------------------------
|  Dinfh | S(rot)=       0.00920329 Eh      5.78 kcal/mol|
|  Cinfv | S(rot)=       0.00985774 Eh      6.19 kcal/mol|
 --------------------------------------------------------


-------------------
GIBBS FREE ENERGY
-------------------

The Gibbs free energy is G = H - T*S

Total enthalpy                    ...   -927.88771130 Eh 
Total entropy correction          ...     -0.04952232 Eh    -31.08 kcal/mol
-----------------------------------------------------------------------
Final Gibbs free energy         ...   -927.93723362 Eh

For completeness - the Gibbs free energy minus the electronic energy
G-E(el)                           ...      0.04704503 Eh     29.52 kcal/mol


Maximum memory used throughout the entire PROP-calculation: 54.8 MB

--------------------------------
SUGGESTED CITATIONS FOR THIS RUN
--------------------------------

Below you find a list of papers that are relevant to this ORCA run
We neither can nor want to force you to cite these papers, but we appreciate if you do
You receive ORCA, which is the product of decades of hard work by many enthusiastic individuals, for free
The only thing we kindly ask in return is that you cite our papers,
We deeply appreciate it, if you show your appreciation for ORCA by not just citing the generic ORCA reference.

Please note that relegating all ORCA citations to the supporting information does *not* help us.
SI sections are not indexed - citations you put there will not count into any citation statistics
But we need these citations in order to attract the funding resources that allow us to do what we are doing

Therefore, if you are a happy ORCA user, please consider citing a few of the papers listed below in the main body of your paper

In addition to the list printed below, the program has created the file HFE_347pcf2_gauche2.bibtex that contains the list in bibtex format
You can import this file easily into all common literature databanks and citation aid programs


List of essential papers. We consider these as the minimum necessary citations

  1. Neese, F.
     Software update: the ORCA program system, version 6.0
     WIRES Comput. Molec. Sci. 2025 15(1), e70019
     doi.org/10.1002/wcms.7019

List of papers to cite with high priority. The work reported in these papers was absolutely
necessary for this run to complete.
Our perspective: the developers of density functionals and basis sets usually get cited in chemistry papers
Good! But without the algorithms to do something with them, the functionals or basis sets would not do anything.
Hence, in our opinion, the algorithm design and method developments papers are equally worthy of getting cited

  1. Neese, F.
     An improvement of the resolution of the identity approximation for the formation of the Coulomb matrix
     J. Comp. Chem. 2003 24(14), 1740-1747
     doi.org/10.1002/jcc.10318
  2. Neese, F.; Wennmohs, F.; Hansen, A.; Becker, U.
     Efficient, approximate and parallel Hartree-Fock and hybrid DFT calculations. A 'chain-of-spheres' algorithm for the Hartree-Fock exchange
     Chem. Phys. 2009 356(1-3), 98-109
     doi.org/10.1016/j.chemphys.2008.10.036
  3. Bykov, D.; Petrenko, T.; Izsak, R.; Kossmann, S.; Becker, U.; Valeev, E.; Neese, F.
     Efficient implementation of the analytic second derivatives of Hartree-Fock and hybrid DFT energies: a detailed analysis of different approximations
     Molec. Phys. 2015 113 , 1961-1977
     doi.org/10.1080/00268976.2015.1025114
  4. Helmich-Paris, B.; de Souza, B.; Neese, F.; Izsák, R.
     An improved chain of spheres for exchange algorithm
     J. Chem. Phys. 2021 155(10), 104109
     doi.org/10.1063/5.0058766
  5. Neese, F.
     The SHARK Integral Generation and Digestion System
     J. Comp. Chem. 2022 44(3), 381
     doi.org/10.1002/jcc.26942

List of suggested additional citations. These are papers that are important in the 'surrounding' of 
of this run, or papers that preceded the highly important papers. If you like your results we are grateful for a citation.

  1. Izsak, R.; Neese, F.
     An overlap fitted chain of spheres exchange method
     J. Chem. Phys. 2011 135 , 144105
     doi.org/10.1063/1.3646921
  2. Izsak, R.; Hansen, A.; Neese, F.
     The resolution of identity and chain of spheres approximations for the LPNO-CCSD singles Fock term
     Molec. Phys. 2012 110 , 2413-2417
     doi.org/10.1080/00268976.2012.687466
  3. Neese, F.
     The ORCA program system
     WIRES Comput. Molec. Sci. 2012 2(1), 73-78
     doi.org/10.1002/wcms.81
  4. Izsak, R.; Neese, F.; Klopper, W.
     Robust fitting techniques in the chain of spheres approximation to the Fock exchange: The role of the complementary space
     J. Chem. Phys. 2013 139 , 
     doi.org/10.1063/1.4819264
  5. Neese, F.
     Software update: the ORCA program system, version 4.0
     WIRES Comput. Molec. Sci. 2018 8(1), 1-6
     doi.org/10.1002/wcms.1327
  6. Neese, F.; Wennmohs, F.; Becker, U.; Riplinger, C.
     The ORCA quantum chemistry program package
     J. Chem. Phys. 2020 152(22), 224108
     doi.org/10.1063/5.0004608
  7. Neese, F.
     Software update: The ORCA program system—Version 5.0
     WIRES Comput. Molec. Sci. 2022 12(1), e1606
     doi.org/10.1002/wcms.1606

List of optional additional citations

  1. Neese, F.
     Approximate second-order SCF convergence for spin unrestricted wavefunctions
     Chem. Phys. Lett. 2000 325(1-3), 93-98
     doi.org/10.1016/s0009-2614(00)00662-x

Timings for individual modules:

Sum of individual times          ...     1287.512 sec (=  21.459 min)
Startup calculation              ...       22.128 sec (=   0.369 min)   1.7 %
SCF iterations                   ...      470.588 sec (=   7.843 min)  36.6 %
Property integrals               ...       90.569 sec (=   1.509 min)   7.0 %
SCF Response                     ...       60.632 sec (=   1.011 min)   4.7 %
Property calculations            ...      267.359 sec (=   4.456 min)  20.8 %
SCF Gradient evaluation          ...      376.182 sec (=   6.270 min)  29.2 %
Geometry relaxation              ...        0.055 sec (=   0.001 min)   0.0 %
                             ****ORCA TERMINATED NORMALLY****
TOTAL RUN TIME: 0 days 0 hours 21 minutes 28 seconds 327 msec
