
                                 *****************
                                 * O   R   C   A *
                                 *****************

                                            #,                                       
                                            ###                                      
                                            ####                                     
                                            #####                                    
                                            ######                                   
                                           ########,                                 
                                     ,,################,,,,,                         
                               ,,#################################,,                 
                          ,,##########################################,,             
                       ,#########################################, ''#####,          
                    ,#############################################,,   '####,        
                  ,##################################################,,,,####,       
                ,###########''''           ''''###############################       
              ,#####''   ,,,,##########,,,,          '''####'''          '####       
            ,##' ,,,,###########################,,,                        '##       
           ' ,,###''''                  '''############,,,                           
         ,,##''                                '''############,,,,        ,,,,,,###''
      ,#''                                            '''#######################'''  
     '                                                          ''''####''''         
             ,#######,   #######,   ,#######,      ##                                
            ,#'     '#,  ##    ##  ,#'     '#,    #''#        ,####,    ,#,          
            ##       ##  ##   ,#'  ##            #'  '#       #'       ,# #          
            ##       ##  #######   ##           ,######,      #####,      #          
            '#,     ,#'  ##    ##  '#,     ,#' ,#      #,     #,   #      #          
             '#######'   ##     ##  '#######'  #'      '#     '####' #    #          



                #########################################################
                #                        -***-                          #
                #          Department of theory and spectroscopy        #
                #                                                       #
                #                      Frank Neese                      #
                #                                                       #
                #     Directorship, Architecture, Infrastructure        #
                #                    SHARK, DRIVERS                     #
                #        Core code/Algorithms in most modules           #
                #                                                       #
                #        Max Planck Institute fuer Kohlenforschung      #
                #                Kaiser Wilhelm Platz 1                 #
                #                 D-45470 Muelheim/Ruhr                 #
                #                      Germany                          #
                #                                                       #
                #                  All rights reserved                  #
                #                        -***-                          #
                #########################################################


                         Program Version 6.1.1  -  RELEASE   -
                                (GIT: $487d211c$)
                          ($2025-11-21 10:33:24 +0100$)


 With contributions from (in alphabetic order):
[Max-Planck-Institut fuer Kohlenforschung]                               
  Daniel Aravena         : Magnetic Suceptibility                        
  Michael Atanasov       : Ab Initio Ligand Field Theory (pilot matlab implementation)
  Alexander A. Auer      : GIAO ZORA, VPT2 properties, NMR spectrum      
  Ute Becker             : All parallelization in ORCA, NUMFREQ, NUMCALC 
  Giovanni Bistoni       : ED, misc. LED, open-shell LED, HFLD           
  Dmytro Bykov           : pre 5.0 version of the SCF Hessian            
  Marcos Casanova-Páez   : Triplet and SCS-CIS(D). UHF-(DLPNO)-IP/EA/STEOM-CCSD. UHF-CVS-IP/STEOM-CCSD   
  Vijay G. Chilkuri      : MRCI spin determinant printing, contributions to CSF-ICE 
  Pauline Colinet        : FMM embedding                                 
  Dipayan Datta          : RHF DLPNO-CCSD density                        
  Achintya Kumar Dutta   : EOM-CC, STEOM-CC                              
  Nicolas Foglia         : Exact transition moments, OPA infrastructure, MCD improvements    
  Dmitry Ganyushin       : Spin-Orbit,Spin-Spin,Magnetic field MRCI      
  Miquel Garcia-Rates    : C-PCM and meta-GGA Hessian, CCSD/C-PCM, Gaussian charge scheme 
  Tiago L. C. Gouveia    : GS-ROHF, GS-ROCIS                             
  Yang Guo               : DLPNO-NEVPT2, F12-NEVPT2, CIM, IAO-localization        
  Andreas Hansen         : Spin unrestricted coupled pair/coupled cluster methods 
  Ingolf Harden          : AUTO-CI MPn and infrastructure                
  Benjamin Helmich-Paris : MC-RPA, TRAH-(SCF,CASSCF), AVAS, COSX integrals, SCF dyn. polar., MC-PDFT, srDFT 
  Lee Huntington         : MR-EOM, pCC                                   
  Robert Izsak           : Overlap fitted RIJCOSX, COSX-SCS-MP3, EOM     
  Riya Kayal             : Wick's Theorem for AUTO-CI, AUTO-CI UHF-CCSDT 
  Emily Kempfer          : AUTO-CI RHF CISDT and CCSDT, approximate NEVPT4
  Christian Kollmar      : KDIIS, OOCD, Brueckner-CCSD(T), CCSD density, CASPT2, CASPT2-K, improved NEVPT2 
  Axel Koslowski         : Symmetry handling                             
  Simone Kossmann        : meta-GGA functionals, TD-DFT gradient, OOMP2, (MP2 Hessian; deprecated post 5.0) 
  Lucas Lang             : DCDCAS, Hyperfine gauge corrections, ICE-SOC+SSC
  Marvin Lechner         : AUTO-CI (C++ implementation), FIC-MRCC        
  Spencer Leger          : CASSCF response                               
  Dagmar Lenk            : GEPOL surface, SMD, ORCA-2-JSON               
  Dimitrios Liakos       : Extrapolation schemes; Compound Job, Property file
  Dimitrios Manganas     : Further ROCIS development; embedding schemes. LFT, Crystal Embedding 
  Dimitrios Pantazis     : SARC Basis sets                               
  Anastasios Papadopoulos: AUTO-CI, single reference methods and gradients 
  Taras Petrenko         : pre 6.0 DFT Hessian and TD-DFT gradient,  ECA, NRVS 
  Petra Pikulova         : Analytic Raman intensities                    
  Peter Pinski           : DLPNO-MP2, DLPNO-MP2 Gradient                 
  Shashank Vittal Rao    : ES-AILFT, MagRelax                            
  Christoph Reimann      : Effective Core Potentials                     
  Marius Retegan         : Local ZFS, SOC                                
  Christoph Riplinger    : Optimizer, TS searches, QM/MM, DLPNO-CCSD(T), (RO)-DLPNO pert. Triples 
  Michael Roemelt        : Original ROCIS implementation, recursive CI coupling coefficients
  Masaaki Saitow         : Open-shell DLPNO-CCSD energy and density      
  Barbara Sandhoefer     : DKH picture change effects                    
  Yorick L. A. Schmerwitz: GMF and freeze-and-release deltaSCF, NEB S-IDPP initial path                    
  Kantharuban Sivalingam : CASSCF convergence/infrastructure, NEVPT2, NEVPT3, NEVPT4(SD), FIC-MRCI and CEPA variants
  Bernardo de Souza      : ESD, SOC TD-DFT                               
  Georgi L. Stoychev     : AutoAux, RI-MP2 NMR, DLPNO-MP2 response, X2C  
  Van Anh Tran           : RI-MP2 g-tensors                              
  Willem Van den Heuvel  : Paramagnetic NMR                              
  Zikuan Wang            : NOTCH, Electric field optimization            
  Frank Wennmohs         : Technical directorship and infrastructure     
  Hang Xu                : AUTO-CI-Response properties                   
                                                                         
[FACCTs GmbH]                                                            
  Markus Bursch, Nicolas Foglia, Miquel Garcia-Rates, Ingolf Harden, Hagen Neugebauer, Anastasios Papadopoulos, 
  Christoph Riplinger, Bernardo de Souza, Georgi L. Stoychev                                                    
                                                                 
  APM, various basis sets, CI-OPT, improved COSX, DLPNO-Multilevel,           
  DOCKER, DRACO, updates on ESD, Fragmentator, GOAT, IRC, LR-CPCM, L-BFGS, MBIS, meta-GGA TD-DFT gradient, ML-optimized integration grids, 
  MM, NACMEs, nearIR, NEB, NEB-TS, NL-DFT gradient (VV10), 2- and 3-layer-ONIOM, interface openCOSMO-RS, QMMM,   
  Crystal-QMMM, RESP, rigid body optimization, SF, symmetry and pop. for TD-DFT, various functionals, SOLVATOR                                   
                                                                         
[Other institutions]                                                     
  V. Asgeirsson          : NEB                                           
  Christoph Bannwarth    : sTDA-DFT, sTD-DFT, PBEh-3c, B97-3c, D3        
  Giovanni Bistoni       : ETS/NOCV, ADLD/ADEX, COVALED                  
  Martin Brehm           : Molecular dynamics                            
  Ronald Cardenas        : ETS/NOCV                                      
  Martina Colucci        : COVALED                                       
  Sebastian Ehlert       : rSCAN, r2SCAN, r2SCAN-3c, D4, dhf basis sets  
  Marvin Friede          : D4 for Fr, Ra, Ac-Lr                          
  Lars Goerigk           : TD-DFT with DH, B97 family of functionals     
  Stefan Grimme          : VdW corrections, initial TS optimization, DFT functionals, gCP, sTDA/sTD-DF 
  Waldemar Hujo          : DFT-NL                                        
  H. Jonsson             : NEB                                           
  Holger Kruse           : gCP                                           
  Marcel Mueller         : wB97X-3c, vDZP basis set                      
  Hagen Neugebauer       : wr2SCAN, Native XTB                           
  Gianluca Regni         : ADLD/ADEX                                     
  Tobias Risthaus        : pre 6.0 range-separated hybrid DFT and stability analysis
  Lukas Wittmann         : regularized MP2, r2SCAN double-hybrids, wr2SCAN        
                                                                         
We gratefully acknowledge several colleagues who have allowed us to      
interface, adapt or use parts of their codes:                            
  Ed Valeev, F. Pavosevic, A. Kumar             : LibInt (2-el integral package), F12 methods 
  Garnet Chan, S. Sharma, J. Yang, R. Olivares  : DMRG                   
  Ulf Ekstrom                                   : XCFun DFT Library      
  Mihaly Kallay                                 : mrcc  (arbitrary order and MRCC methods)
  Frank Weinhold                                : gennbo (NPA and NBO analysis)           
  Simon Mueller                                 : openCOSMO-RS                            
  Christopher J. Cramer and Donald G. Truhlar   : smd solvation model                     
  S Lehtola, MJT Oliveira, MAL Marques          : LibXC Library                           
  Liviu Ungur et al                             : ANISO software                          


 Your calculation uses the libint2 library for the computation of 2-el integrals
 For citations please refer to: http://libint.valeyev.net

 Your ORCA version has been built with support for libXC version: 7.0.0
 For citations please refer to: https://libxc.gitlab.io

 This ORCA versions uses:
   CBLAS   interface :  Fast vector & matrix operations
   LAPACKE interface :  Fast linear algebra routines
   SCALAPACK package :  Parallel linear algebra routines
   Shared memory     :  Shared parallel matrices
   BLAS/LAPACK       :  OpenBLAS 0.3.29  USE64BITINT DYNAMIC_ARCH NO_AFFINITY Cooperlake SINGLE_THREADED
        Core in use  :  Cooperlake
   Copyright (c) 2011-2014, The OpenBLAS Project


  ***********************************
  * Starting time: Mon Feb 23 17:03:41 2026
  * Host name:     Breado
  * Process ID:    21979
  * Working dir.:  /home/bread/other_data/B3LYP_aud-cc-pVTZ
  ***********************************

Warning: RI is on but no J-basis has been assigned. Assigning Def2/J (nothing to worry about!)
================================================================================

----- Orbital basis set information -----
Your calculation utilizes the basis: aug-cc-pVTZ 
    H, B-Ne : Obtained from the ccRepo (grant-hill.group.shef.ac.uk/ccrepo) Feb. 2017
              R. A. Kendall, T. H. Dunning, Jr., R. J. Harrison, J. Chem. Phys. 96, 6796 (1992)
         He : Obtained from the ccRepo (grant-hill.group.shef.ac.uk/ccrepo) Feb. 2017
              D. E. Woon, T. H. Dunning, Jr., J. Chem. Phys. 100, 2975 (1994)
  Li-Be, Na : Obtained from the ccRepo (grant-hill.group.shef.ac.uk/ccrepo) Feb. 2017
              B. P. Prascher, D. E. Woon, K. A. Peterson, T. H. Dunning, Jr., A. K. Wilson, Theor. Chem. Acc. 128, 69 (2011)
         Mg : Obtained from the Peterson Research Group Website (tyr0.chem.wsu.edu/~kipeters) Feb. 2017
              B. P. Prascher, D. E. Woon, K. A. Peterson, T. H. Dunning, Jr., A. K. Wilson, Theor. Chem. Acc. 128, 69 (2011)
      Al-Ar : Obtained from the ccRepo (grant-hill.group.shef.ac.uk/ccrepo) Feb. 2017
              D. E. Woon, T. H. Dunning, Jr., J. Chem. Phys. 98, 1358 (1993)
      Sc-Zn : Obtained from the ccRepo (grant-hill.group.shef.ac.uk/ccrepo) Feb. 2017
              N. B. Balabanov, K. A. Peterson, J. Chem. Phys. 123, 064107 (2005)
              N. B. Balabanov, K. A. Peterson, J. Chem. Phys. 125, 074110 (2006)
      Ga-Kr : Obtained from the ccRepo (grant-hill.group.shef.ac.uk/ccrepo) Feb. 2017
              A. K. Wilson, D. E. Woon, K. A. Peterson, T. H. Dunning, Jr., J. Chem. Phys. 110, 7667 (1999)
     Ag, Au : Obtained from the Peterson Research Group Website (tyr0.chem.wsu.edu/~kipeters) Feb. 2017
              K. A. Peterson, C. Puzzarini, Theor. Chem. Acc. 114, 283 (2005)

----- AuxJ basis set information -----
Your calculation utilizes the auxiliary basis: def2/J
   H-Rn: F. Weigend, Phys. Chem. Chem. Phys. 8, 1057 (2006).
   Fr-Lr: K. Eichkorn, F. Weigend, O. Treutler, R. Ahlrichs; Theor. Chem. Acc. 97, 119 (1997).

================================================================================
                                        WARNINGS
                       Please study these warnings very carefully!
================================================================================


WARNING: Geometry Optimization
  ===> : Switching off AutoStart
         For restart on a previous wavefunction, please use MOREAD

================================================================================
                                       INPUT FILE
================================================================================
NAME = HFE_347pcf2_gauche2.inp
|  1> # avogadro generated ORCA input file 
|  2> # Basic Mode
|  3> # 
|  4> ! B3LYP aug-cc-pVTZ OPT FREQ 
|  5> % FREQ TEMP 305, 320, 340 END
|  6> 
|  7> * xyz 0 1
|  8>    F        1.57550       -1.24070        1.22680
|  9>    F        2.24660       -1.31560       -0.85780
| 10>    F        1.24280        1.48160        1.02660
| 11>    F        1.89540        1.41730       -1.04930
| 12>    F       -2.21040        0.58860       -1.24560
| 13>    F       -2.97990        0.67620        0.79360
| 14>    F       -2.55970       -1.25630       -0.13610
| 15>    O        0.13720       -0.61470       -0.40400
| 16>    C        1.49250       -0.61950        0.02550
| 17>    C       -0.71760        0.07520        0.49690
| 18>    C        2.00800        0.78950        0.14680
| 19>    C       -2.13040        0.01840       -0.02340
| 20>    H       -0.53430        1.14710        0.50530
| 21>    H       -0.65750       -0.34600        1.50500
| 22>    H        3.05020        0.82730        0.47350
| 23> *
| 24> 
| 25> 
| 26>                          ****END OF INPUT****
================================================================================

                       *****************************
                       * Geometry Optimization Run *
                       *****************************

Geometry optimization settings:
Update method            Update   .... BFGS
Choice of coordinates    CoordSys .... (2022) Redundant Internals
Initial Hessian          InHess   .... Almloef's Model
Max. no of cycles        MaxIter  .... 50

Convergence Tolerances:
Energy Change            TolE     ....  5.0000e-06 Eh
Max. Gradient            TolMAXG  ....  3.0000e-04 Eh/bohr
RMS Gradient             TolRMSG  ....  1.0000e-04 Eh/bohr
Max. Displacement        TolMAXD  ....  4.0000e-03 bohr
RMS Displacement         TolRMSD  ....  2.0000e-03 bohr
Strict Convergence                .... False

------------------------------------------------------------------------------
                        ORCA OPTIMIZATION COORDINATE SETUP
------------------------------------------------------------------------------

The optimization will be done in redundant internal coordinates (2022)
Making redundant internal coordinates   ...  (2022 redundants) done
Evaluating the initial hessian          ...  (Almloef) done
Evaluating the coordinates              ...  done
Calculating the B-matrix                .... done
Calculating the G-matrix                .... done
The number of degrees of freedom        ....   57

    -----------------------------------------------------------------
                    Redundant Internal Coordinates


    -----------------------------------------------------------------
         Definition                    Initial Value    Approx d2E/dq
    -----------------------------------------------------------------
      1. B(C   8,F   1)                  1.3540         0.593374   
      2. B(C   8,O   7)                  1.4217         0.498017   
      3. B(C   8,F   0)                  1.3550         0.591399   
      4. B(C   9,O   7)                  1.4207         0.499994   
      5. B(C  10,F   3)                  1.3555         0.590144   
      6. B(C  10,C   8)                  1.5052         0.409154   
      7. B(C  10,F   2)                  1.3559         0.589254   
      8. B(C  11,F   6)                  1.3498         0.602785   
      9. B(C  11,F   5)                  1.3498         0.602801   
     10. B(C  11,C   9)                  1.5066         0.407060   
     11. B(C  11,F   4)                  1.3510         0.599970   
     12. B(H  12,C   9)                  1.0875         0.363433   
     13. B(H  13,C   9)                  1.0942         0.354579   
     14. B(H  14,C  10)                  1.0929         0.356337   
     15. A(C   8,O   7,C   9)          112.5596         0.396641   
     16. A(F   1,C   8,C  10)          110.0634         0.395699   
     17. A(F   1,C   8,O   7)          109.6069         0.407012   
     18. A(O   7,C   8,C  10)          110.3438         0.385431   
     19. A(F   0,C   8,C  10)          109.6777         0.395467   
     20. A(F   0,C   8,F   1)          107.9723         0.417779   
     21. A(F   0,C   8,O   7)          109.1341         0.406772   
     22. A(H  12,C   9,H  13)          111.2872         0.290555   
     23. A(C  11,C   9,H  13)          110.8030         0.328098   
     24. A(O   7,C   9,H  13)          111.3620         0.337428   
     25. A(C  11,C   9,H  12)          101.4132         0.329436   
     26. A(O   7,C   9,H  12)          112.4662         0.338819   
     27. A(O   7,C   9,C  11)          109.0818         0.385352   
     28. A(F   3,C  10,H  14)          109.0854         0.345773   
     29. A(F   2,C  10,H  14)          109.0595         0.345685   
     30. A(F   2,C  10,F   3)          106.8137         0.417103   
     31. A(F   3,C  10,C   8)          109.5101         0.395320   
     32. A(C   8,C  10,H  14)          112.5235         0.328644   
     33. A(F   2,C  10,C   8)          109.6825         0.395215   
     34. A(F   4,C  11,C   9)          110.6111         0.396110   
     35. A(F   5,C  11,F   6)          108.0959         0.420381   
     36. A(F   4,C  11,F   6)          107.7105         0.420028   
     37. A(F   4,C  11,F   5)          107.7354         0.420030   
     38. A(F   6,C  11,C   9)          111.2652         0.396436   
     39. A(F   5,C  11,C   9)          111.2705         0.396438   
     40. D(F   1,C   8,O   7,C   9)    178.6391         0.019603   
     41. D(F   0,C   8,O   7,C   9)     60.5858         0.019603   
     42. D(C  10,C   8,O   7,C   9)    -59.9962         0.019603   
     43. D(H  13,C   9,O   7,C   8)    -56.7360         0.019764   
     44. D(H  12,C   9,O   7,C   8)     68.9670         0.019764   
     45. D(C  11,C   9,O   7,C   8)   -179.3401         0.019764   
     46. D(F   2,C  10,C   8,F   0)    -61.7161         0.013263   
     47. D(F   3,C  10,C   8,O   7)    -58.3750         0.013263   
     48. D(F   3,C  10,C   8,F   1)     62.7180         0.013263   
     49. D(F   3,C  10,C   8,F   0)   -178.6309         0.013263   
     50. D(F   2,C  10,C   8,O   7)     58.5397         0.013263   
     51. D(F   2,C  10,C   8,F   1)    179.6328         0.013263   
     52. D(F   4,C  11,C   9,H  13)    177.5026         0.013131   
     53. D(F   4,C  11,C   9,H  12)     59.2803         0.013131   
     54. D(F   4,C  11,C   9,O   7)    -59.5585         0.013131   
     55. D(F   5,C  11,C   9,H  13)     57.7896         0.013131   
     56. D(F   5,C  11,C   9,H  12)    -60.4327         0.013131   
     57. D(F   5,C  11,C   9,O   7)   -179.2715         0.013131   
    -----------------------------------------------------------------

Number of atoms                         .... 15
Number of degrees of freedom            .... 57


         *************************************************************
         *                GEOMETRY OPTIMIZATION CYCLE   1            *
         *************************************************************
---------------------------------
CARTESIAN COORDINATES (ANGSTROEM)
---------------------------------
  F      1.575500   -1.240700    1.226800
  F      2.246600   -1.315600   -0.857800
  F      1.242800    1.481600    1.026600
  F      1.895400    1.417300   -1.049300
  F     -2.210400    0.588600   -1.245600
  F     -2.979900    0.676200    0.793600
  F     -2.559700   -1.256300   -0.136100
  O      0.137200   -0.614700   -0.404000
  C      1.492500   -0.619500    0.025500
  C     -0.717600    0.075200    0.496900
  C      2.008000    0.789500    0.146800
  C     -2.130400    0.018400   -0.023400
  H     -0.534300    1.147100    0.505300
  H     -0.657500   -0.346000    1.505000
  H      3.050200    0.827300    0.473500

----------------------------
CARTESIAN COORDINATES (A.U.)
----------------------------
  NO LB      ZA    FRAG     MASS         X           Y           Z
   0 F     9.0000    0    18.998    2.977264   -2.344583    2.318316
   1 F     9.0000    0    18.998    4.245459   -2.486124   -1.621007
   2 F     9.0000    0    18.998    2.348552    2.799818    1.939993
   3 F     9.0000    0    18.998    3.581787    2.678309   -1.982890
   4 F     9.0000    0    18.998   -4.177051    1.112293   -2.353843
   5 F     9.0000    0    18.998   -5.631195    1.277833    1.499687
   6 F     9.0000    0    18.998   -4.837132   -2.374063   -0.257192
   7 O     8.0000    0    15.999    0.259270   -1.161615   -0.763449
   8 C     6.0000    0    12.011    2.820416   -1.170685    0.048188
   9 C     6.0000    0    12.011   -1.356067    0.142107    0.939005
  10 C     6.0000    0    12.011    3.794570    1.491939    0.277412
  11 C     6.0000    0    12.011   -4.025873    0.034771   -0.044220
  12 H     1.0000    0     1.008   -1.009681    2.167705    0.954879
  13 H     1.0000    0     1.008   -1.242495   -0.653845    2.844038
  14 H     1.0000    0     1.008    5.764043    1.563370    0.894785

--------------------------------
INTERNAL COORDINATES (ANGSTROEM)
--------------------------------
 F      0   0   0     0.000000000000     0.00000000     0.00000000
 F      1   0   0     2.191242200214     0.00000000     0.00000000
 F      1   2   0     2.749852108751    90.09355006     0.00000000
 F      3   1   2     2.177012186461    90.22425874     0.35296628
 F      4   3   1     4.193193415525    75.93372403    85.69446382
 F      5   4   3     2.181316265469   107.08054245     1.33679615
 F      5   4   3     2.180976100282   107.46846186   298.05368267
 O      1   2   3     2.262761925170    61.21614647    62.54808888
 C      2   1   3     1.354046125507    36.02780568   333.74686837
 C      8   1   2     1.420656841042    93.42681437   197.81184094
 C      4   3   1     1.355531928801    36.59961993   332.66665868
 C      6   5   4     1.349755566760    36.15212786   296.82148733
 H     10   8   1     1.087492096523   112.46622839    98.54972767
 H     10   8   1     1.094206132317   111.36200472   332.84681044
 H     11   4   3     1.092859812602   109.08543249   242.25564236

---------------------------
INTERNAL COORDINATES (A.U.)
---------------------------
 F      0   0   0     0.000000000000     0.00000000     0.00000000
 F      1   0   0     4.140847651496     0.00000000     0.00000000
 F      1   2   0     5.196467394324    90.09355006     0.00000000
 F      3   1   2     4.113956822621    90.22425874     0.35296628
 F      4   3   1     7.923987181904    75.93372403    85.69446382
 F      5   4   3     4.122090353204   107.08054245     1.33679615
 F      5   4   3     4.121447534160   107.46846186   298.05368267
 O      1   2   3     4.276000344836    61.21614647    62.54808888
 C      2   1   3     2.558776349905    36.02780568   333.74686837
 C      8   1   2     2.684652359851    93.42681437   197.81184094
 C      4   3   1     2.561584111221    36.59961993   332.66665868
 C      6   5   4     2.550668368912    36.15212786   296.82148733
 H     10   8   1     2.055062235232   112.46622839    98.54972767
 H     10   8   1     2.067749924136   111.36200472   332.84681044
 H     11   4   3     2.065205748586   109.08543249   242.25564236

---------------------
BASIS SET INFORMATION
---------------------
There are 4 groups of distinct atoms

 Group   1 Type F   : 19s6p3d2f contracted to 5s4p3d2f pattern {88111/3111/111/11}
 Group   2 Type O   : 19s6p3d2f contracted to 5s4p3d2f pattern {88111/3111/111/11}
 Group   3 Type C   : 19s6p3d2f contracted to 5s4p3d2f pattern {88111/3111/111/11}
 Group   4 Type H   : 6s3p2d contracted to 4s3p2d pattern {3111/111/11}

Atom   0F    basis set group =>   1
Atom   1F    basis set group =>   1
Atom   2F    basis set group =>   1
Atom   3F    basis set group =>   1
Atom   4F    basis set group =>   1
Atom   5F    basis set group =>   1
Atom   6F    basis set group =>   1
Atom   7O    basis set group =>   2
Atom   8C    basis set group =>   3
Atom   9C    basis set group =>   3
Atom  10C    basis set group =>   3
Atom  11C    basis set group =>   3
Atom  12H    basis set group =>   4
Atom  13H    basis set group =>   4
Atom  14H    basis set group =>   4
---------------------------------
AUXILIARY/J BASIS SET INFORMATION
---------------------------------
There are 4 groups of distinct atoms

 Group   1 Type F   : 12s5p4d2f1g contracted to 6s4p3d1f1g pattern {711111/2111/211/2/1}
 Group   2 Type O   : 12s5p4d2f1g contracted to 6s4p3d1f1g pattern {711111/2111/211/2/1}
 Group   3 Type C   : 12s5p4d2f1g contracted to 6s4p3d1f1g pattern {711111/2111/211/2/1}
 Group   4 Type H   : 5s2p1d contracted to 3s1p1d pattern {311/2/1}

Atom   0F    basis set group =>   1
Atom   1F    basis set group =>   1
Atom   2F    basis set group =>   1
Atom   3F    basis set group =>   1
Atom   4F    basis set group =>   1
Atom   5F    basis set group =>   1
Atom   6F    basis set group =>   1
Atom   7O    basis set group =>   2
Atom   8C    basis set group =>   3
Atom   9C    basis set group =>   3
Atom  10C    basis set group =>   3
Atom  11C    basis set group =>   3
Atom  12H    basis set group =>   4
Atom  13H    basis set group =>   4
Atom  14H    basis set group =>   4
------------------------------------------------------------------------------
                             ORCA STARTUP CALCULATIONS
                           -- RI-GTO INTEGRALS CHOSEN --
------------------------------------------------------------------------------
------------------------------------------------------------------------------
                   ___                                                        
                  /   \      - P O W E R E D   B Y -                         
                 /     \                                                     
                 |  |  |   _    _      __       _____    __    __             
                 |  |  |  | |  | |    /  \     |  _  \  |  |  /  |          
                  \  \/   | |  | |   /    \    | | | |  |  | /  /          
                 / \  \   | |__| |  /  /\  \   | |_| |  |  |/  /          
                |  |  |   |  __  | /  /__\  \  |    /   |      \           
                |  |  |   | |  | | |   __   |  |    \   |  |\   \          
                \     /   | |  | | |  |  |  |  | |\  \  |  | \   \       
                 \___/    |_|  |_| |__|  |__|  |_| \__\ |__|  \__/        
                                                                              
                      - O R C A' S   B I G   F R I E N D -                    
                                      &                                       
                       - I N T E G R A L  F E E D E R -                       
                                                                              
 v1 FN, 2020, v2 2021, v3 2022-2024                                           
------------------------------------------------------------------------------


----------------------
SHARK INTEGRAL PACKAGE
----------------------

Number of atoms                             ...     15
Number of basis functions                   ...    693
Number of shells                            ...    267
Maximum angular momentum                    ...      3
Integral batch strategy                     ... SHARK/LIBINT Hybrid
RI-J (if used) integral strategy            ... SPLIT-RIJ (Revised 2003 algorithm where possible)
Printlevel                                  ...      1
Contraction scheme used                     ... PARTIAL GENERAL contraction
Prescreening option                         ... SCHWARTZ
   Thresh                                   ... 2.500e-11
   Tcut                                     ... 2.500e-12
   Tpresel                                  ... 2.500e-12 
Coulomb Range Separation                    ... NOT USED
Exchange Range Separation                   ... NOT USED
Multipole approximations                    ... NOT USED
Finite Nucleus Model                        ... NOT USED
CABS basis                                  ... NOT available
Auxiliary Coulomb fitting basis             ... AVAILABLE
   # of basis functions in Aux-J            ...    621
   # of shells in Aux-J                     ...    195
   Maximum angular momentum in Aux-J        ...      4
Auxiliary J/K fitting basis                 ... NOT available
Auxiliary Correlation fitting basis         ... NOT available
Auxiliary 'external' fitting basis          ... NOT available

Checking pre-screening integrals            ... done (  0.0 sec) Dimension = 267
Save PGC pre-screening integrals            ... done (  0.0 sec) Dimension = 267
Calculate PGC overlap integrals             ... done (  0.0 sec) Dimension = 195
Calculating pre-screening integrals (ORCA)  ... done (  0.2 sec) Dimension = 195
Shell pair information
Shell pair cut-off parameter TPreSel        ...   2.5e-12
Total number of shell pairs                 ...     35778
Shell pairs after pre-screening             ...     26740
Total number of primitive shell pairs       ...     44298
Primitive shell pairs kept                  ...     31174
          la=0 lb=0:   5844 shell pairs
          la=1 lb=0:   6741 shell pairs
          la=1 lb=1:   1545 shell pairs
          la=2 lb=0:   4730 shell pairs
          la=2 lb=1:   2213 shell pairs
          la=2 lb=2:    821 shell pairs
          la=3 lb=0:   2463 shell pairs
          la=3 lb=1:   1234 shell pairs
          la=3 lb=2:    890 shell pairs
          la=3 lb=3:    259 shell pairs

Checking whether 4 symmetric matrices of dimension 693 fit in memory
:Max Core in MB      =   4096.00
 MB in use           =     32.40
 MB left             =   4063.60
 MB needed           =      7.34
 Data fit in memory  = YES
Calculating RI/J V-Matrix + Cholesky decomp.... done (  0.0 sec)
Calculating Nuclear repulsion               ... done (  0.0 sec) ENN=    863.221943248253 Eh

Diagonalization of the overlap matrix:
Smallest eigenvalue                        ... 1.055e-05
Time for diagonalization                   ...    0.062 sec
Threshold for overlap eigenvalues          ... 1.000e-07
Number of eigenvalues below threshold      ... 0
Time for construction of square roots      ...    0.027 sec
Total time needed                          ...    0.090 sec

-------------------
DFT GRID GENERATION
-------------------

General Integration Accuracy     IntAcc      ... 4.388
Radial Grid Type                 RadialGrid  ... OptM3 with GC (2021)
Angular Grid (max. ang.)         AngularGrid ... 4 (Lebedev-302)
Angular grid pruning method      GridPruning ... 4 (adaptive)
Weight generation scheme         WeightScheme... mBecke (2022)
Basis function cutoff            BFCut       ... 1.0000e-11
Integration weight cutoff        WCut        ... 1.0000e-14
Partially contracted basis set               ... off
Rotationally invariant grid construction     ... off
Angular grids for H and He will be reduced by one unit
Diffuse basis detected: some atoms will have their outermost
                        angular grid increased by 1.

Total number of grid points                  ...    86499
Total number of batches                      ...     1358
Average number of points per batch           ...       63
Average number of grid points per atom       ...     5767

---------------------
SHARK GRID GENERATION
---------------------

General Integration Accuracy     IntAcc      ... 4.388
Radial Grid Type                 RadialGrid  ... OptM3 with GC (2021)
Angular Grid (max. ang.)         AngularGrid ... 4 (Lebedev-302)
Angular grid pruning method      GridPruning ... 4 (adaptive)
Weight generation scheme         WeightScheme... mBecke (2022)
Basis function cutoff            BFCut       ... 1.0000e-11
Integration weight cutoff        WCut        ... 1.0000e-14
Partially contracted basis set               ... off
Rotationally invariant grid construction     ... off
Angular grids for H and He will be reduced by one unit
Diffuse basis detected: some atoms will have their outermost
                        angular grid increased by 1.
Steep s-basis detected: some atoms will have their radial
                        grid points doubled.

Total number of grid points                  ...   163662
Total number of batches                      ...     2566
Average number of points per batch           ...       63
Average number of grid points per atom       ...    10911

--------------------
COSX GRID GENERATION
--------------------

GRIDX 1
-------
General Integration Accuracy     IntAcc      ... 3.816
Radial Grid Type                 RadialGrid  ... OptM3 with GC (2021)
Angular Grid (max. ang.)         AngularGrid ... 1 (Lebedev-50)
Angular grid pruning method      GridPruning ... 4 (adaptive)
Weight generation scheme         WeightScheme... mBecke (2022)
Basis function cutoff            BFCut       ... 1.0000e-11
Integration weight cutoff        WCut        ... 1.0000e-14
Partially contracted basis set               ... on
Rotationally invariant grid construction     ... off
Angular grids for H and He will be reduced by one unit
Diffuse basis detected: some atoms will have their outermost
                        angular grid increased by 1.

Total number of grid points                  ...    10908
Total number of batches                      ...       94
Average number of points per batch           ...      116
Average number of grid points per atom       ...      727
UseSFitting                                  ... on

GRIDX 2
-------
General Integration Accuracy     IntAcc      ... 4.020
Radial Grid Type                 RadialGrid  ... OptM3 with GC (2021)
Angular Grid (max. ang.)         AngularGrid ... 2 (Lebedev-110)
Angular grid pruning method      GridPruning ... 4 (adaptive)
Weight generation scheme         WeightScheme... mBecke (2022)
Basis function cutoff            BFCut       ... 1.0000e-11
Integration weight cutoff        WCut        ... 1.0000e-14
Partially contracted basis set               ... on
Rotationally invariant grid construction     ... off
Angular grids for H and He will be reduced by one unit
Diffuse basis detected: some atoms will have their outermost
                        angular grid increased by 1.

Total number of grid points                  ...    28400
Total number of batches                      ...      230
Average number of points per batch           ...      123
Average number of grid points per atom       ...     1893
UseSFitting                                  ... on

GRIDX 3
-------
General Integration Accuracy     IntAcc      ... 4.338
Radial Grid Type                 RadialGrid  ... OptM3 with GC (2021)
Angular Grid (max. ang.)         AngularGrid ... 3 (Lebedev-194)
Angular grid pruning method      GridPruning ... 4 (adaptive)
Weight generation scheme         WeightScheme... mBecke (2022)
Basis function cutoff            BFCut       ... 1.0000e-11
Integration weight cutoff        WCut        ... 1.0000e-14
Partially contracted basis set               ... on
Rotationally invariant grid construction     ... off
Angular grids for H and He will be reduced by one unit
Diffuse basis detected: some atoms will have their outermost
                        angular grid increased by 1.

Total number of grid points                  ...    61870
Total number of batches                      ...      491
Average number of points per batch           ...      126
Average number of grid points per atom       ...     4125
UseSFitting                                  ... on
Grids setup in   4.5 sec
Initializing property integral containers    ... done (  0.0 sec)

SHARK setup successfully completed in   5.3 seconds

Maximum memory used throughout the entire STARTUP-calculation: 130.1 MB
-------------------------------------------------------------------------------
                                 ORCA GUESS
                   Start orbitals & Density for SCF / CASSCF
-------------------------------------------------------------------------------

------------
SCF SETTINGS
------------
Hamiltonian:
 Density Functional     Method          .... DFT(GTOs)
 Exchange Functional    Exchange        .... B88
   X-Alpha parameter    XAlpha          ....  0.666667
   Becke's b parameter  XBeta           ....  0.004200
 Correlation Functional Correlation     .... LYP
 LDA part of GGA corr.  LDAOpt          .... VWN-5
 Gradients option       PostSCFGGA      .... off
 Hybrid DFT is turned on
   Fraction HF Exchange ScalHFX         ....  0.200000
   Scaling of DF-GGA-X  ScalDFX         ....  0.720000
   Scaling of DF-GGA-C  ScalDFC         ....  0.810000
   Scaling of DF-LDA-C  ScalLDAC        ....  1.000000
   Perturbative correction              ....  0.000000
   NL short-range parameter             ....  4.800000
 RI-approximation to the Coulomb term is turned on
   Number of AuxJ basis functions       .... 621
   RIJ-COSX (HFX calculated with COS-X)).... on


General Settings:
 Integral files         IntName         .... HFE_347pcf2_gauche2
 Hartree-Fock type      HFTyp           .... RHF
 Total Charge           Charge          ....    0
 Multiplicity           Mult            ....    1
 Number of Electrons    NEL             ....   98
 Basis Dimension        Dim             ....  621
 Nuclear Repulsion      ENuc            ....    863.2219432483 Eh

Convergence Acceleration:
 AO-DIIS                CNVDIIS         .... on
   Start iteration      DIISMaxIt       ....    12
   Startup error        DIISStart       ....  0.200000
   # of expansion vecs  DIISMaxEq       ....     5
   Bias factor          DIISBfac        ....   1.050
   Max. coefficient     DIISMaxC        ....  10.000
 MO-DIIS                CNVKDIIS        .... off
 Trust-Rad. Augm. Hess. CNVTRAH         .... auto
   Auto Start mean grad. ratio tolernc. ....  1.125000
   Auto Start start iteration           ....    50
   Auto Start num. interpolation iter.  ....    10
   Max. Number of Micro iterations      ....    24
   Max. Number of Macro iterations      .... Maxiter - #DIIS iter
   Number of Davidson start vectors     ....     2
   Converg. threshold    (grad. norm)   ....   1.000e-05
   Grad. Scal. Fac. for Micro threshold ....   0.100
   Minimum threshold for Micro iter.    ....   1.000e-02
   NR start threshold (gradient norm)   ....   1.000e-04
   Initial trust radius                 ....   0.400
   Minimum AH scaling param. (alpha)    ....   1.000
   Maximum AH scaling param. (alpha)    .... 1000.000
   Quad. conv. algorithm                .... NR
   White noise on init. David. guess    .... on
   Maximum white noise                  ....   0.010
   Pseudo random numbers                .... off
   Inactive MOs                         .... canonical
   Orbital update algorithm             .... Taylor
   Preconditioner                       .... Diag
   Full preconditioner red. dimension   ....   250
 SOSCF                 CNVSOSCF           .... on
   Start iteration     SOSCFMaxIt         ....   150
   Startup grad/error  SOSCFStart         ....  0.003300
   Hessian update      SOSCFHessUp        .... L-BFGS
   Autom. constraints  SOSCFAutoConstrain .... off
 Level Shifting         CNVShift        .... on
   Level shift para.    LevelShift      ....    0.2500
   Turn off err/grad.   ShiftErr        ....    0.0010
 Zerner damping         CNVZerner       .... off
 Static damping         CNVDamp         .... on
   Fraction old density DampFac         ....    0.7000
   Max. Damping (<1)    DampMax         ....    0.9800
   Min. Damping (>=0)   DampMin         ....    0.0000
   Turn off err/grad.   DampErr         ....    0.1000

SCF Procedure:
 Maximum # iterations   MaxIter         ....   125
 SCF integral mode      SCFMode         .... Direct
   Integral package                     .... SHARK and LIBINT hybrid scheme
 Reset frequency        DirectResetFreq ....    20
 Integral Threshold     Thresh          ....  2.500e-11 Eh
 Primitive CutOff       TCut            ....  2.500e-12 Eh

Convergence Tolerance:
 Convergence Check Mode ConvCheckMode   .... Total+1el-Energy
 Convergence forced     ConvForced      .... 0
 Energy Change          TolE            ....  1.000e-08 Eh
 1-El. energy change                    ....  1.000e-05 Eh
 Orbital Gradient       TolG            ....  1.000e-05
 Orbital Rotation angle TolX            ....  1.000e-05
 DIIS Error             TolErr          ....  5.000e-07

------------------------------
INITIAL GUESS: MODEL POTENTIAL
------------------------------
Loading Hartree-Fock densities                     ... done
Calculating cut-offs                               ... done
Initializing the effective Hamiltonian             ... done
Setting up the integral package (SHARK)            ... done
Starting the Coulomb interaction                   ... done (   0.6 sec)
Making the grid                                    ... done (   0.2 sec)
Mapping shells                                     ... done
Starting the XC term evaluation                    ... done (   1.0 sec)
  promolecular density results
     # of electrons  =     97.999531963
     EX              =   -100.082462140
     EC              =     -3.647631392
     EX+EC           =   -103.730093532
Transforming the Hamiltonian                       ... done (   0.0 sec)
Diagonalizing the Hamiltonian                      ... done (   0.0 sec)
Back transforming the eigenvectors                 ... done (   0.0 sec)
Now organizing SCF variables                       ... done
                      ------------------
                      INITIAL GUESS DONE (   1.9 sec)
                      ------------------
             **** ENERGY FILE WAS UPDATED (HFE_347pcf2_gauche2.en.tmp) ****
Finished Guess after   2.1 sec
Maximum memory used throughout the entire GUESS-calculation: 92.5 MB

-------------------------------------------------------------------------------------------
                                      ORCA LEAN-SCF
                              memory conserving SCF solver
-------------------------------------------------------------------------------------------

----------------------------------------D-I-I-S--------------------------------------------
Iteration    Energy (Eh)           Delta-E    RMSDP     MaxDP     DIISErr   Damp  Time(sec)
-------------------------------------------------------------------------------------------
               ***  Starting incremental Fock matrix formation  ***
    1    -928.1195193305088651     0.00e+00  6.79e-04  3.59e-02  2.09e-01  0.700  32.8
    2    -928.2262236333028795    -1.07e-01  3.91e-04  2.43e-02  8.07e-02  0.700  13.7
                               ***Turning on AO-DIIS***
    3    -928.2619297321245995    -3.57e-02  1.96e-04  1.62e-02  2.47e-02  0.700  13.2
    4    -928.2860028265051824    -2.41e-02  4.54e-04  3.77e-02  1.32e-02  0.000  12.6
                              *** Initializing SOSCF ***
---------------------------------------S-O-S-C-F--------------------------------------
Iteration    Energy (Eh)           Delta-E    RMSDP     MaxDP     MaxGrad    Time(sec)
--------------------------------------------------------------------------------------
    5    -928.3413350136190729    -5.53e-02  4.32e-05  3.95e-03  2.39e-03    12.9
               *** Restarting incremental Fock matrix formation ***
    6    -928.3414225074284332    -8.75e-05  4.29e-05  2.45e-03  1.82e-04    30.1
    7    -928.3414231301064774    -6.23e-07  9.07e-06  4.62e-04  1.77e-04    23.2
    8    -928.3414287486791636    -5.62e-06  8.05e-06  5.09e-04  3.37e-05    21.0
    9    -928.3414288563678838    -1.08e-07  1.04e-06  8.16e-05  2.08e-05    20.6
   10    -928.3414289316031045    -7.52e-08  1.81e-06  1.04e-04  8.29e-06    17.3
   11    -928.3414289245524742     7.05e-09  8.56e-07  7.09e-05  6.97e-06    17.5
                 **** Energy Check signals convergence ****

               *****************************************************
               *                     SUCCESS                       *
               *           SCF CONVERGED AFTER  11 CYCLES          *
               *****************************************************

Recomputing exchange energy using gridx3       ... done (   52.311 sec)
Old exchange energy                            :    -20.079704653 Eh
New exchange energy                            :    -20.079766245 Eh
Exchange energy change after final integration :     -0.000061593 Eh
Total energy after final integration           :   -928.341490531 Eh
             **** ENERGY FILE WAS UPDATED (HFE_347pcf2_gauche2.en.tmp) ****

----------------
TOTAL SCF ENERGY
----------------

Total Energy       :       -928.34149053125100 Eh          -25261.45622 eV

Components:
Nuclear Repulsion  :        863.22194324825341 Eh           23489.46326 eV
Electronic Energy  :      -1791.56337218676231 Eh          -48750.91781 eV
One Electron Energy:      -3004.04147242658973 Eh          -81744.12426 eV
Two Electron Energy:       1212.47810023982743 Eh           32993.20645 eV

Virial components:
Potential Energy   :      -1852.16282629307261 Eh          -50399.91279 eV
Kinetic Energy     :        923.82133576182162 Eh           25138.45656 eV
Virial Ratio       :          2.00489288847795

DFT components:
N(Alpha)           :       49.000061330661 electrons
N(Beta)            :       49.000061330661 electrons
N(Total)           :       98.000122661322 electrons
E(X)               :      -80.001517961978 Eh       
E(C)               :       -4.264757912003 Eh       
E(XC)              :      -84.266275873981 Eh       

---------------
SCF CONVERGENCE
---------------

  Last Energy change         ...   -7.0506e-09  Tolerance :   1.0000e-08
  Last MAX-Density change    ...    7.0863e-05  Tolerance :   1.0000e-07
  Last RMS-Density change    ...    8.5616e-07  Tolerance :   5.0000e-09
  Last DIIS Error            ...    2.3902e-03  Tolerance :   5.0000e-07
  Last Orbital Gradient      ...    6.9697e-06  Tolerance :   1.0000e-05
  Last Orbital Rotation      ...    4.7875e-06  Tolerance :   1.0000e-05


----------------
ORBITAL ENERGIES
----------------

  NO   OCC          E(Eh)            E(eV) 
   0   2.0000     -24.746663      -673.3909 
   1   2.0000     -24.744893      -673.3428 
   2   2.0000     -24.742612      -673.2807 
   3   2.0000     -24.735036      -673.0746 
   4   2.0000     -24.733366      -673.0291 
   5   2.0000     -24.724945      -672.8000 
   6   2.0000     -24.722597      -672.7361 
   7   2.0000     -19.205179      -522.5995 
   8   2.0000     -10.439161      -284.0640 
   9   2.0000     -10.438083      -284.0347 
  10   2.0000     -10.385521      -282.6044 
  11   2.0000     -10.269759      -279.4543 
  12   2.0000      -1.324458       -36.0403 
  13   2.0000      -1.323132       -36.0042 
  14   2.0000      -1.303435       -35.4683 
  15   2.0000      -1.257102       -34.2075 
  16   2.0000      -1.244497       -33.8645 
  17   2.0000      -1.240595       -33.7583 
  18   2.0000      -1.234834       -33.6016 
  19   2.0000      -1.102477       -29.9999 
  20   2.0000      -0.829799       -22.5800 
  21   2.0000      -0.790760       -21.5177 
  22   2.0000      -0.704350       -19.1663 
  23   2.0000      -0.681859       -18.5543 
  24   2.0000      -0.636297       -17.3145 
  25   2.0000      -0.625834       -17.0298 
  26   2.0000      -0.623087       -16.9551 
  27   2.0000      -0.607882       -16.5413 
  28   2.0000      -0.603011       -16.4088 
  29   2.0000      -0.588821       -16.0226 
  30   2.0000      -0.578214       -15.7340 
  31   2.0000      -0.560785       -15.2597 
  32   2.0000      -0.512666       -13.9503 
  33   2.0000      -0.499919       -13.6035 
  34   2.0000      -0.485497       -13.2110 
  35   2.0000      -0.481755       -13.1092 
  36   2.0000      -0.480083       -13.0637 
  37   2.0000      -0.476182       -12.9576 
  38   2.0000      -0.472301       -12.8520 
  39   2.0000      -0.459181       -12.4949 
  40   2.0000      -0.450693       -12.2640 
  41   2.0000      -0.444534       -12.0964 
  42   2.0000      -0.441743       -12.0204 
  43   2.0000      -0.436865       -11.8877 
  44   2.0000      -0.432999       -11.7825 
  45   2.0000      -0.424473       -11.5505 
  46   2.0000      -0.408131       -11.1058 
  47   2.0000      -0.373168       -10.1544 
  48   2.0000      -0.335348        -9.1253 
  49   0.0000      -0.012270        -0.3339 
  50   0.0000      -0.000441        -0.0120 
  51   0.0000       0.011219         0.3053 
  52   0.0000       0.012648         0.3442 
  53   0.0000       0.032478         0.8838 
  54   0.0000       0.036577         0.9953 
  55   0.0000       0.038773         1.0551 
  56   0.0000       0.056687         1.5425 
  57   0.0000       0.062207         1.6927 
  58   0.0000       0.063352         1.7239 
  59   0.0000       0.068638         1.8677 
*Only the first 10 virtual orbitals were printed.

                    ********************************
                    * MULLIKEN POPULATION ANALYSIS *
                    ********************************

-----------------------
MULLIKEN ATOMIC CHARGES
-----------------------
   0 F :   -0.422804
   1 F :   -0.399604
   2 F :   -0.433053
   3 F :   -0.424266
   4 F :   -0.391830
   5 F :   -0.385510
   6 F :   -0.381266
   7 O :   -0.525101
   8 C :    1.180742
   9 C :   -0.117680
  10 C :    0.274952
  11 C :    1.133425
  12 H :    0.276431
  13 H :    0.275961
  14 H :    0.339603
Sum of atomic charges:    0.0000000

--------------------------------
MULLIKEN REDUCED ORBITAL CHARGES
--------------------------------
  0 F s       :     4.021405  s :     4.021405
      pz      :     1.553433  p :     5.357590
      px      :     1.960420
      py      :     1.843737
      dz2     :     0.008824  d :     0.039597
      dxz     :     0.009844
      dyz     :     0.011603
      dx2y2   :     0.005480
      dxy     :     0.003846
      f0      :     0.001142  f :     0.004211
      f+1     :     0.000734
      f-1     :     0.000795
      f+2     :     0.000660
      f-2     :     0.000621
      f+3     :     0.000080
      f-3     :     0.000180

  1 F s       :     4.032953  s :     4.032953
      pz      :     1.725075  p :     5.323337
      px      :     1.788221
      py      :     1.810041
      dz2     :     0.008610  d :     0.039224
      dxz     :     0.005879
      dyz     :     0.009053
      dx2y2   :     0.009916
      dxy     :     0.005766
      f0      :     0.000503  f :     0.004089
      f+1     :     0.000585
      f-1     :     0.000508
      f+2     :     0.000947
      f-2     :     0.000645
      f+3     :     0.000411
      f-3     :     0.000490

  2 F s       :     3.996067  s :     3.996067
      pz      :     1.749017  p :     5.397590
      px      :     1.827481
      py      :     1.821093
      dz2     :     0.006941  d :     0.035699
      dxz     :     0.005994
      dyz     :     0.007706
      dx2y2   :     0.010213
      dxy     :     0.004845
      f0      :     0.000406  f :     0.003696
      f+1     :     0.000538
      f-1     :     0.000508
      f+2     :     0.000862
      f-2     :     0.000568
      f+3     :     0.000359
      f-3     :     0.000456

  3 F s       :     4.031327  s :     4.031327
      pz      :     1.555892  p :     5.354131
      px      :     1.960511
      py      :     1.837728
      dz2     :     0.008003  d :     0.035073
      dxz     :     0.009356
      dyz     :     0.009339
      dx2y2   :     0.005029
      dxy     :     0.003346
      f0      :     0.001096  f :     0.003734
      f+1     :     0.000571
      f-1     :     0.000771
      f+2     :     0.000592
      f-2     :     0.000505
      f+3     :     0.000069
      f-3     :     0.000131

  4 F s       :     4.035928  s :     4.035928
      pz      :     1.525364  p :     5.317235
      px      :     1.948784
      py      :     1.843087
      dz2     :     0.008802  d :     0.034806
      dxz     :     0.012025
      dyz     :     0.007997
      dx2y2   :     0.002509
      dxy     :     0.003473
      f0      :     0.000993  f :     0.003861
      f+1     :     0.000926
      f-1     :     0.000850
      f+2     :     0.000462
      f-2     :     0.000536
      f+3     :     0.000044
      f-3     :     0.000050

  5 F s       :     4.025024  s :     4.025024
      pz      :     1.760311  p :     5.319693
      px      :     1.744761
      py      :     1.814621
      dz2     :     0.009217  d :     0.036901
      dxz     :     0.005902
      dyz     :     0.005516
      dx2y2   :     0.009765
      dxy     :     0.006502
      f0      :     0.000357  f :     0.003891
      f+1     :     0.000773
      f-1     :     0.000462
      f+2     :     0.000688
      f-2     :     0.000607
      f+3     :     0.000514
      f-3     :     0.000490

  6 F s       :     4.025576  s :     4.025576
      pz      :     1.926912  p :     5.315993
      px      :     1.899645
      py      :     1.489436
      dz2     :     0.003777  d :     0.035817
      dxz     :     0.002727
      dyz     :     0.009494
      dx2y2   :     0.007620
      dxy     :     0.012200
      f0      :     0.000431  f :     0.003880
      f+1     :     0.000134
      f-1     :     0.000442
      f+2     :     0.000469
      f-2     :     0.000358
      f+3     :     0.000819
      f-3     :     0.001225

  7 O s       :     3.936274  s :     3.936274
      pz      :     1.559760  p :     4.497085
      px      :     1.200258
      py      :     1.737067
      dz2     :     0.009371  d :     0.083057
      dxz     :     0.025504
      dyz     :     0.012324
      dx2y2   :     0.014013
      dxy     :     0.021844
      f0      :     0.000939  f :     0.008685
      f+1     :     0.001192
      f-1     :     0.000851
      f+2     :     0.001833
      f-2     :     0.000894
      f+3     :     0.000697
      f-3     :     0.002277

  8 C s       :     2.866982  s :     2.866982
      pz      :     0.467712  p :     1.531402
      px      :     0.524473
      py      :     0.539217
      dz2     :     0.103436  d :     0.382914
      dxz     :     0.048446
      dyz     :     0.050167
      dx2y2   :     0.097534
      dxy     :     0.083332
      f0      :     0.004065  f :     0.037960
      f+1     :     0.016466
      f-1     :     0.002754
      f+2     :    -0.000215
      f-2     :     0.008289
      f+3     :     0.002105
      f-3     :     0.004497

  9 C s       :     3.298492  s :     3.298492
      pz      :     0.887999  p :     2.629980
      px      :     0.759740
      py      :     0.982242
      dz2     :     0.059741  d :     0.202517
      dxz     :     0.032262
      dyz     :    -0.000089
      dx2y2   :     0.082427
      dxy     :     0.028176
      f0      :     0.001158  f :    -0.013309
      f+1     :    -0.007912
      f-1     :     0.005926
      f+2     :     0.001948
      f-2     :    -0.005295
      f+3     :    -0.002661
      f-3     :    -0.006474

 10 C s       :     3.257475  s :     3.257475
      pz      :     0.513250  p :     2.107357
      px      :     0.859642
      py      :     0.734466
      dz2     :     0.083280  d :     0.354325
      dxz     :     0.071383
      dyz     :     0.048684
      dx2y2   :     0.107093
      dxy     :     0.043884
      f0      :     0.001807  f :     0.005891
      f+1     :     0.005476
      f-1     :    -0.000566
      f+2     :     0.001807
      f-2     :     0.001032
      f+3     :     0.000621
      f-3     :    -0.004286

 11 C s       :     2.734013  s :     2.734013
      pz      :     0.487710  p :     1.669707
      px      :     0.717140
      py      :     0.464857
      dz2     :     0.078552  d :     0.414613
      dxz     :     0.084757
      dyz     :     0.081044
      dx2y2   :     0.092257
      dxy     :     0.078003
      f0      :     0.012058  f :     0.048242
      f+1     :     0.005288
      f-1     :     0.006083
      f+2     :     0.008339
      f-2     :     0.008537
      f+3     :     0.007075
      f-3     :     0.000862

 12 H s       :     0.697118  s :     0.697118
      pz      :     0.008529  p :     0.035676
      px      :     0.018451
      py      :     0.008696
      dz2     :    -0.001087  d :    -0.009225
      dxz     :     0.000690
      dyz     :     0.000223
      dx2y2   :    -0.004910
      dxy     :    -0.004141

 13 H s       :     0.700350  s :     0.700350
      pz      :     0.010157  p :     0.017456
      px      :     0.005047
      py      :     0.002253
      dz2     :    -0.000380  d :     0.006234
      dxz     :     0.001235
      dyz     :     0.000710
      dx2y2   :     0.003254
      dxy     :     0.001416

 14 H s       :     0.654139  s :     0.654139
      pz      :    -0.004014  p :     0.001397
      px      :     0.000917
      py      :     0.004493
      dz2     :     0.001508  d :     0.004861
      dxz     :    -0.001393
      dyz     :     0.003483
      dx2y2   :     0.000342
      dxy     :     0.000921



                     *******************************
                     * LOEWDIN POPULATION ANALYSIS *
                     *******************************

----------------------
LOEWDIN ATOMIC CHARGES
----------------------
   0 F :    0.566345
   1 F :    0.564659
   2 F :    0.616775
   3 F :    0.555850
   4 F :    0.542136
   5 F :    0.544061
   6 F :    0.534368
   7 O :    0.592493
   8 C :   -1.404168
   9 C :   -0.080508
  10 C :   -0.838114
  11 C :   -1.553075
  12 H :   -0.301393
  13 H :   -0.161016
  14 H :   -0.178413

-------------------------------
LOEWDIN REDUCED ORBITAL CHARGES
-------------------------------
  0 F s       :     3.404583  s :     3.404583
      pz      :     1.536950  p :     4.842010
      px      :     1.670813
      py      :     1.634247
      dz2     :     0.047922  d :     0.157942
      dxz     :     0.039030
      dyz     :     0.044318
      dx2y2   :     0.016076
      dxy     :     0.010597
      f0      :     0.007873  f :     0.029120
      f+1     :     0.005128
      f-1     :     0.006633
      f+2     :     0.004553
      f-2     :     0.003414
      f+3     :     0.000540
      f-3     :     0.000978

  1 F s       :     3.418507  s :     3.418507
      pz      :     1.601049  p :     4.836637
      px      :     1.610671
      py      :     1.624918
      dz2     :     0.035348  d :     0.151636
      dxz     :     0.029599
      dyz     :     0.031998
      dx2y2   :     0.032465
      dxy     :     0.022224
      f0      :     0.003738  f :     0.028561
      f+1     :     0.004615
      f-1     :     0.003029
      f+2     :     0.005995
      f-2     :     0.005229
      f+3     :     0.002710
      f-3     :     0.003245

  2 F s       :     3.362690  s :     3.362690
      pz      :     1.597767  p :     4.812021
      px      :     1.598927
      py      :     1.615327
      dz2     :     0.041919  d :     0.177730
      dxz     :     0.033088
      dyz     :     0.030741
      dx2y2   :     0.044962
      dxy     :     0.027020
      f0      :     0.003955  f :     0.030784
      f+1     :     0.004848
      f-1     :     0.003144
      f+2     :     0.006771
      f-2     :     0.004865
      f+3     :     0.003245
      f-3     :     0.003954

  3 F s       :     3.410300  s :     3.410300
      pz      :     1.532321  p :     4.846485
      px      :     1.681992
      py      :     1.632173
      dz2     :     0.045758  d :     0.158066
      dxz     :     0.043398
      dyz     :     0.042153
      dx2y2   :     0.016442
      dxy     :     0.010316
      f0      :     0.007380  f :     0.029298
      f+1     :     0.005885
      f-1     :     0.006226
      f+2     :     0.004756
      f-2     :     0.003593
      f+3     :     0.000428
      f-3     :     0.001030

  4 F s       :     3.419715  s :     3.419715
      pz      :     1.527026  p :     4.853396
      px      :     1.680891
      py      :     1.645479
      dz2     :     0.048293  d :     0.155757
      dxz     :     0.043173
      dyz     :     0.041643
      dx2y2   :     0.013617
      dxy     :     0.009031
      f0      :     0.007264  f :     0.028996
      f+1     :     0.006619
      f-1     :     0.006876
      f+2     :     0.003746
      f-2     :     0.003409
      f+3     :     0.000435
      f-3     :     0.000647

  5 F s       :     3.420686  s :     3.420686
      pz      :     1.617097  p :     4.851325
      px      :     1.597109
      py      :     1.637119
      dz2     :     0.036839  d :     0.154945
      dxz     :     0.030965
      dyz     :     0.027268
      dx2y2   :     0.034111
      dxy     :     0.025762
      f0      :     0.003349  f :     0.028983
      f+1     :     0.005562
      f-1     :     0.002813
      f+2     :     0.004982
      f-2     :     0.005428
      f+3     :     0.003116
      f-3     :     0.003733

  6 F s       :     3.421469  s :     3.421469
      pz      :     1.676005  p :     4.857568
      px      :     1.664640
      py      :     1.516923
      dz2     :     0.015873  d :     0.157405
      dxz     :     0.007173
      dyz     :     0.043071
      dx2y2   :     0.044009
      dxy     :     0.047279
      f0      :     0.003285  f :     0.029191
      f+1     :     0.001039
      f-1     :     0.003396
      f+2     :     0.003985
      f-2     :     0.002231
      f+3     :     0.006827
      f-3     :     0.008427

  7 O s       :     3.014415  s :     3.014415
      pz      :     1.336000  p :     3.862622
      px      :     1.141286
      py      :     1.385336
      dz2     :     0.081774  d :     0.413439
      dxz     :     0.098278
      dyz     :     0.040507
      dx2y2   :     0.106597
      dxy     :     0.086283
      f0      :     0.013185  f :     0.117032
      f+1     :     0.022568
      f-1     :     0.006766
      f+2     :     0.022647
      f-2     :     0.013859
      f+3     :     0.016454
      f-3     :     0.021553

  8 C s       :     2.469135  s :     2.469135
      pz      :     0.642836  p :     2.120400
      px      :     0.703875
      py      :     0.773690
      dz2     :     0.338080  d :     1.617283
      dxz     :     0.330578
      dyz     :     0.330409
      dx2y2   :     0.315338
      dxy     :     0.302879
      f0      :     0.194614  f :     1.197350
      f+1     :     0.191437
      f-1     :     0.163219
      f+2     :     0.210080
      f-2     :     0.162013
      f+3     :     0.112569
      f-3     :     0.163419

  9 C s       :     2.447461  s :     2.447461
      pz      :     0.738936  p :     2.223854
      px      :     0.707128
      py      :     0.777790
      dz2     :     0.212456  d :     0.918365
      dxz     :     0.183503
      dyz     :     0.124912
      dx2y2   :     0.234355
      dxy     :     0.163138
      f0      :     0.043326  f :     0.490829
      f+1     :     0.095683
      f-1     :     0.054320
      f+2     :     0.081036
      f-2     :     0.074527
      f+3     :     0.065808
      f-3     :     0.076129

 10 C s       :     2.487396  s :     2.487396
      pz      :     0.614757  p :     2.152575
      px      :     0.798334
      py      :     0.739483
      dz2     :     0.301386  d :     1.314100
      dxz     :     0.241855
      dyz     :     0.313866
      dx2y2   :     0.279720
      dxy     :     0.177272
      f0      :     0.160479  f :     0.884044
      f+1     :     0.125402
      f-1     :     0.158439
      f+2     :     0.143582
      f-2     :     0.144289
      f+3     :     0.076676
      f-3     :     0.075178

 11 C s       :     2.479769  s :     2.479769
      pz      :     0.670876  p :     2.114956
      px      :     0.785752
      py      :     0.658328
      dz2     :     0.347056  d :     1.676718
      dxz     :     0.321928
      dyz     :     0.346457
      dx2y2   :     0.339701
      dxy     :     0.321576
      f0      :     0.205715  f :     1.281632
      f+1     :     0.192503
      f-1     :     0.179182
      f+2     :     0.186515
      f-2     :     0.168807
      f+3     :     0.157764
      f-3     :     0.191145

 12 H s       :     0.615584  s :     0.615584
      pz      :     0.080909  p :     0.357393
      px      :     0.123260
      py      :     0.153224
      dz2     :     0.032827  d :     0.328417
      dxz     :     0.033272
      dyz     :     0.079852
      dx2y2   :     0.094233
      dxy     :     0.088233

 13 H s       :     0.634795  s :     0.634795
      pz      :     0.127189  p :     0.294128
      px      :     0.080554
      py      :     0.086385
      dz2     :     0.060929  d :     0.232093
      dxz     :     0.066097
      dyz     :     0.058625
      dx2y2   :     0.031120
      dxy     :     0.015323

 14 H s       :     0.674026  s :     0.674026
      pz      :     0.069277  p :     0.277497
      px      :     0.140282
      py      :     0.067938
      dz2     :     0.033407  d :     0.226889
      dxz     :     0.059806
      dyz     :     0.018045
      dx2y2   :     0.047366
      dxy     :     0.068265



                      *****************************
                      * MAYER POPULATION ANALYSIS *
                      *****************************

  NA   - Mulliken gross atomic population
  ZA   - Total nuclear charge
  QA   - Mulliken gross atomic charge
  VA   - Mayer's total valence
  BVA  - Mayer's bonded valence
  FA   - Mayer's free valence

  ATOM       NA         ZA         QA         VA         BVA        FA
  0 F      9.4228     9.0000    -0.4228     0.8720     0.8720     0.0000
  1 F      9.3996     9.0000    -0.3996     0.8819     0.8819     0.0000
  2 F      9.4331     9.0000    -0.4331     0.8291     0.8291    -0.0000
  3 F      9.4243     9.0000    -0.4243     0.9151     0.9151    -0.0000
  4 F      9.3918     9.0000    -0.3918     0.9728     0.9728     0.0000
  5 F      9.3855     9.0000    -0.3855     0.9421     0.9421    -0.0000
  6 F      9.3813     9.0000    -0.3813     0.9445     0.9445     0.0000
  7 O      8.5251     8.0000    -0.5251     1.9085     1.9085    -0.0000
  8 C      4.8193     6.0000     1.1807     3.3080     3.3080     0.0000
  9 C      6.1177     6.0000    -0.1177     3.8108     3.8108     0.0000
 10 C      5.7250     6.0000     0.2750     3.7046     3.7046     0.0000
 11 C      4.8666     6.0000     1.1334     3.3487     3.3487    -0.0000
 12 H      0.7236     1.0000     0.2764     0.9548     0.9548     0.0000
 13 H      0.7240     1.0000     0.2760     0.9136     0.9136    -0.0000
 14 H      0.6604     1.0000     0.3396     0.9112     0.9112    -0.0000

  Mayer bond orders larger than 0.100000
B(  0-F ,  8-C ) :   0.6397 B(  0-F , 10-C ) :   0.1334 B(  1-F ,  8-C ) :   0.6842 
B(  2-F , 10-C ) :   0.8372 B(  3-F ,  8-C ) :   0.1171 B(  3-F , 10-C ) :   0.7258 
B(  4-F , 11-C ) :   0.7913 B(  5-F , 11-C ) :   0.7711 B(  6-F , 11-C ) :   0.7601 
B(  7-O ,  8-C ) :   0.8881 B(  7-O ,  9-C ) :   0.7899 B(  7-O , 10-C ) :   0.1091 
B(  8-C , 10-C ) :   0.9118 B(  9-C , 11-C ) :   0.9895 B(  9-C , 12-H ) :   0.8908 
B(  9-C , 13-H ) :   0.8654 B( 10-C , 14-H ) :   0.9177 

-------
TIMINGS
-------

Total SCF time: 0 days 0 hours 4 min 42 sec 

Total time                  ....     282.947 sec
Sum of individual times     ....     267.502 sec  ( 94.5%)

SCF preparation             ....       0.224 sec  (  0.1%)
Fock matrix formation       ....     264.455 sec  ( 93.5%)
  Startup                   ....       0.024 sec  (  0.0% of F)
  Split-RI-J                ....      13.676 sec  (  5.2% of F)
  Chain of spheres X        ....     232.243 sec  ( 87.8% of F)
  XC integration            ....      32.125 sec  ( 12.1% of F)
    XC Preparation          ....       0.000 sec  (  0.0% of XC)
    Basis function eval.    ....       4.848 sec  ( 15.1% of XC)
    Density eval.           ....       9.077 sec  ( 28.3% of XC)
    XC-Functional eval.     ....       0.263 sec  (  0.8% of XC)
    XC-Potential eval.      ....      17.449 sec  ( 54.3% of XC)
Diagonalization             ....       0.000 sec  (  0.0%)
Density matrix formation    ....       0.613 sec  (  0.2%)
Total Energy calculation    ....       0.016 sec  (  0.0%)
Population analysis         ....       0.067 sec  (  0.0%)
Orbital Transformation      ....       0.190 sec  (  0.1%)
Orbital Orthonormalization  ....       0.000 sec  (  0.0%)
DIIS solution               ....       1.484 sec  (  0.5%)
SOSCF solution              ....       0.453 sec  (  0.2%)
Finished LeanSCF after 283.0 sec

Maximum memory used throughout the entire LEANSCF-calculation: 127.8 MB

------------------------------------------------------------------------------
                         ORCA PROPERTY INTEGRAL CALCULATIONS
------------------------------------------------------------------------------

GBWName                                   ... HFE_347pcf2_gauche2.gbw
Number of atoms                           ...     15
Number of basis functions                 ...    693
Max core memory                           ...   4096 MB

Dipole integrals                          ... YES
Quadrupole integrals                      ...  NO
Linear momentum integrals                 ...  NO
Angular momentum integrals                ...  NO
Higher moments length integrals           ...  NO
Higher moments velocity integrals         ...  NO
Kinetic energy integrals                  ...  NO
GIAO right hand sides                     ...  NO
GIAO dipole derivative integrals          ...  NO
SOC integrals                             ...  NO
EPR diamagnetic integrals (GIAO)          ...  NO
EPR gauge integrals                       ...  NO
Field gradient integrals                  ...  NO (   0 nuclei)
Spin-dipole/Fermi contact integrals       ...  NO (   0 nuclei)
Contact density integrals                 ...  NO (   0 nuclei)
Nucleus-orbit integrals                   ...  NO (   0 nuclei)
Geometric perturbations                   ...  NO (  15 nuclei)

Choice of electric origin   ... Center of mass
Position of electric origin ... ( -0.0293,  0.0155, -0.0075) 
Choice of magnetic origin   ... GIAO
Position of magnetic origin ... (  0.0000,  0.0000,  0.0000) 

Calculating integrals                     ... Electric Dipole (Length)     done (  0.1 sec)

Property integrals calculated in   0.1 sec

Maximum memory used throughout the entire PROPINT-calculation: 95.4 MB

-------------------------   --------------------
FINAL SINGLE POINT ENERGY      -928.341490531251
-------------------------   --------------------

------------------------------------------------------------------------------
                         ORCA SCF GRADIENT CALCULATION
------------------------------------------------------------------------------

Nuc. rep. gradient        (SHARK) ... done (  0.0 sec)
HCore & Overlap gradient  (SHARK) ... done (  0.7 sec)
Split-RIJ-J gradient      (SHARK) ... done (  6.1 sec)
COSX-gradient                     ... done (471.1 sec)
XC gradient                       ... done ( 13.2 sec)

------------------
CARTESIAN GRADIENT
------------------

   1   F   :   -0.005766588    0.000223602   -0.001236029
   2   F   :    0.013529091   -0.008430237   -0.007338472
   3   F   :   -0.018419335   -0.008102159   -0.012294414
   4   F   :   -0.001916089    0.002746506    0.001198560
   5   F   :    0.002039980    0.001582445   -0.004399832
   6   F   :   -0.005862424    0.002093293    0.001079428
   7   F   :    0.004743834   -0.002894864    0.000651164
   8   O   :   -0.031968307    0.006640231   -0.003373349
   9   C   :    0.036754670    0.015068849    0.013409373
  10   C   :    0.019210189   -0.011245331   -0.002368002
  11   C   :   -0.020338937   -0.018731002    0.004035431
  12   C   :    0.004263505    0.016899501    0.009618668
  13   H   :    0.000132701    0.005858557   -0.002437937
  14   H   :    0.002929354   -0.002402562    0.003383555
  15   H   :    0.000668356    0.000693171    0.000071855

Difference to translation invariance:
           :   -0.0000000001   -0.0000000000   -0.0000000001

Difference to rotation invariance:
           :    0.0000101363    0.0002424778   -0.0000406772

Norm of the Cartesian gradient     ...    0.0747609595
RMS gradient                       ...    0.0111447058
MAX gradient                       ...    0.0367546696

-------
TIMINGS
-------

Total SCF gradient time     ....      491.136 sec

Densities                   ....       0.005 sec  (  0.0%)
One electron gradient       ....       0.746 sec  (  0.2%)
RI-J Coulomb gradient       ....       6.126 sec  (  1.2%)
COSX gradient               ....     471.070 sec  ( 95.9%)
XC gradient                 ....      13.183 sec  (  2.7%)

Maximum memory used throughout the entire SCFGRAD-calculation: 148.4 MB
------------------------------------------------------------------------------
                         ORCA GEOMETRY RELAXATION STEP
------------------------------------------------------------------------------

Reading the OPT-File                    .... done
Getting information on internals        .... done
Copying old internal coords+grads       .... done
Making the new internal coordinates     .... (2022 redundants) done
Validating the new internal coordinates .... (2022 redundants) done
Calculating the B-matrix                .... done
Calculating the G,G- and P matrices     .... done
Transforming gradient to internals      .... done
Projecting the internal gradient        .... done
Number of atoms                         ....  15
Number of internal coordinates          ....  57
Current Energy                          ....  -928.341490531 Eh
Current gradient norm                   ....     0.074760960 Eh/bohr
Maximum allowed component of the step   ....  0.300
Current trust radius                    ....  0.300
Evaluating the initial hessian          ....  (Almloef) done
Projecting the Hessian                  .... done
Forming the augmented Hessian           .... done
Diagonalizing the augmented Hessian     .... done
Last element of RFO vector              ....  0.898432401
Lowest eigenvalues of augmented Hessian:
 -0.065378046  0.013131389  0.014635151  0.019703396  0.023858978
Length of the computed step             ....  0.488753359
Warning: the length of the step is outside the trust region - taking restricted step instead
The input lambda is                     ....     0.012131
   iter:   5  x=    0.003082  g= 1998.783234 f(x)=     7.593292
   iter:  10  x=   -0.108528  g=    3.421378 f(x)=     0.164982
   iter:  15  x=   -0.208676  g=    0.404154 f(x)=     0.000000
The output lambda is                    ....    -0.208676 (17 iterations)
The final length of the internal step   ....  0.300000000
Converting the step to Cartesian space:
 Initial RMS(Int)=    0.0397359707
Transforming coordinates:
 Iter   0:  RMS(Cart)=    0.2786031814 RMS(Int)=    1.1706268729
 Iter   5:  RMS(Cart)=    0.0000662965 RMS(Int)=    0.0000541005
 Iter  10:  RMS(Cart)=    0.0000000683 RMS(Int)=    0.0000000540
done
Storing new coordinates                 .... done

                                .--------------------.
          ----------------------|Geometry convergence|-------------------------
          Item                value                   Tolerance       Converged
          ---------------------------------------------------------------------
          RMS gradient        0.0207651087            0.0001000000      NO
          MAX gradient        0.0920407762            0.0003000000      NO
          RMS step            0.0397359707            0.0020000000      NO
          MAX step            0.1520538985            0.0040000000      NO
          -------------------------------------------------------------------------
          ........................................................
          Max(Bonds)      0.0310      Max(Angles)    8.71
          Max(Dihed)        4.85      Max(Improp)    0.00
          ---------------------------------------------------------------------

The optimization has not yet converged - more geometry cycles are needed


    ---------------------------------------------------------------------------
                         Redundant Internal Coordinates
                            (Angstroem and degrees)

        Definition                    Value    dE/dq     Step     New-Value
    ----------------------------------------------------------------------------
     1. B(C   8,F   1)                1.3540  0.016654 -0.0110    1.3431   
     2. B(C   8,O   7)                1.4217  0.003713 -0.0028    1.4190   
     3. B(C   8,F   0)                1.3550 -0.001549  0.0010    1.3560   
[...]
freq.     292.17  E(vib)   ...       0.31 
freq.     320.49  E(vib)   ...       0.28 
freq.     355.49  E(vib)   ...       0.26 
freq.     360.10  E(vib)   ...       0.25 
freq.     433.47  E(vib)   ...       0.21 
freq.     509.29  E(vib)   ...       0.16 
freq.     528.41  E(vib)   ...       0.15 
freq.     539.74  E(vib)   ...       0.15 
freq.     572.35  E(vib)   ...       0.14 
freq.     601.93  E(vib)   ...       0.12 
freq.     658.81  E(vib)   ...       0.10 
freq.     701.78  E(vib)   ...       0.09 
freq.     841.17  E(vib)   ...       0.06 
freq.     869.21  E(vib)   ...       0.05 
freq.     970.03  E(vib)   ...       0.04 
freq.    1080.86  E(vib)   ...       0.02 
freq.    1088.15  E(vib)   ...       0.02 
freq.    1112.33  E(vib)   ...       0.02 
freq.    1129.37  E(vib)   ...       0.02 
freq.    1153.77  E(vib)   ...       0.02 
freq.    1179.89  E(vib)   ...       0.02 
freq.    1195.60  E(vib)   ...       0.02 
freq.    1261.14  E(vib)   ...       0.01 
freq.    1302.27  E(vib)   ...       0.01 
freq.    1321.28  E(vib)   ...       0.01 
freq.    1362.58  E(vib)   ...       0.01 
freq.    1406.14  E(vib)   ...       0.01 
freq.    1443.78  E(vib)   ...       0.01 
freq.    1494.10  E(vib)   ...       0.01 
freq.    3071.05  E(vib)   ...       0.00 
freq.    3095.93  E(vib)   ...       0.00 
freq.    3131.21  E(vib)   ...       0.00 

------------
INNER ENERGY
------------

The inner energy is: U= E(el) + E(ZPE) + E(vib) + E(rot) + E(trans)
    E(el)   - is the total energy from the electronic structure calculation
              = E(kin-el) + E(nuc-el) + E(el-el) + E(nuc-nuc)
    E(ZPE)  - the the zero temperature vibrational energy from the frequency calculation
    E(vib)  - the the finite temperature correction to E(ZPE) due to population
              of excited vibrational states
    E(rot)  - is the rotational thermal energy
    E(trans)- is the translational thermal energy

Summary of contributions to the inner energy U:
Electronic energy                ...   -928.35933504 Eh
Zero point energy                ...      0.08238175 Eh      51.70 kcal/mol
Thermal vibrational correction   ...      0.00962236 Eh       6.04 kcal/mol
Thermal rotational correction    ...      0.00152006 Eh       0.95 kcal/mol
Thermal translational correction ...      0.00152006 Eh       0.95 kcal/mol
-----------------------------------------------------------------------
Total thermal energy                   -928.26429080 Eh


Summary of corrections to the electronic energy:
(perhaps to be used in another calculation)
Total thermal correction                  0.01266249 Eh       7.95 kcal/mol
Non-thermal (ZPE) correction              0.08238175 Eh      51.70 kcal/mol
-----------------------------------------------------------------------
Total correction                          0.09504423 Eh      59.64 kcal/mol


--------
ENTHALPY
--------

The enthalpy is H = U + kB*T
                kB is Boltzmann's constant
Total thermal energy              ...   -928.26429080 Eh 
Thermal Enthalpy correction       ...      0.00101341 Eh       0.64 kcal/mol
-----------------------------------------------------------------------
Total Enthalpy                    ...   -928.26327740 Eh


Note: Only C1 symmetry has been detected, increase convergence thresholds 
      if your molecule has a higher symmetry. Symmetry factor of 1.0 is   
      used for the rotational entropy correction. 
 

Note: Rotational entropy computed according to Herzberg 
Infrared and Raman Spectra, Chapter V,1, Van Nostrand Reinhold, 1945 
Point Group:  C1, Symmetry Number:   1  
Rotational constants in cm-1:     0.050660     0.017154     0.016166 

Vibrational entropy computed according to the QRRHO of S. Grimme
Chem.Eur.J. 2012 18 9955 using a reference frequency of 100.0 cm-1


-------
ENTROPY
-------

The entropy contributions are T*S = T*(S(el)+S(vib)+S(rot)+S(trans))
     S(el)   - electronic entropy
     S(vib)  - vibrational entropy
     S(rot)  - rotational entropy
     S(trans)- translational entropy
The entropies will be listed as multiplied by the temperature to get
units of energy

Electronic entropy                ...      0.00000000 Eh      0.00 kcal/mol
Vibrational entropy               ...      0.01737171 Eh     10.90 kcal/mol
Rotational entropy                ...      0.01597654 Eh     10.03 kcal/mol
Translational entropy             ...      0.02148743 Eh     13.48 kcal/mol
-----------------------------------------------------------------------
Final entropy term                ...      0.05483568 Eh     34.41 kcal/mol

In case the symmetry of your molecule has not been determined correctly
or in case you have a reason to use a different symmetry number we print 
out the resulting rotational entropy values for sn=1,12:

 non-linear molecules -----------------------------------
|  sn= 1 | S(rot)=       0.01597654 Eh     10.03 kcal/mol|
|  sn= 2 | S(rot)=       0.01527413 Eh      9.58 kcal/mol|
|  sn= 3 | S(rot)=       0.01486324 Eh      9.33 kcal/mol|
|  sn= 4 | S(rot)=       0.01457171 Eh      9.14 kcal/mol|
|  sn= 5 | S(rot)=       0.01434558 Eh      9.00 kcal/mol|
|  sn= 6 | S(rot)=       0.01416082 Eh      8.89 kcal/mol|
|  sn= 7 | S(rot)=       0.01400461 Eh      8.79 kcal/mol|
|  sn= 8 | S(rot)=       0.01386929 Eh      8.70 kcal/mol|
|  sn= 9 | S(rot)=       0.01374993 Eh      8.63 kcal/mol|
|  sn=10 | S(rot)=       0.01364316 Eh      8.56 kcal/mol|
|  sn=11 | S(rot)=       0.01354658 Eh      8.50 kcal/mol|
|  sn=12 | S(rot)=       0.01345840 Eh      8.45 kcal/mol|
 linear molecules ---------------------------------------
|  Dinfh | S(rot)=       0.00996780 Eh      6.25 kcal/mol|
|  Cinfv | S(rot)=       0.01067022 Eh      6.70 kcal/mol|
 --------------------------------------------------------


-------------------
GIBBS FREE ENERGY
-------------------

The Gibbs free energy is G = H - T*S

Total enthalpy                    ...   -928.26327740 Eh 
Total entropy correction          ...     -0.05483568 Eh    -34.41 kcal/mol
-----------------------------------------------------------------------
Final Gibbs free energy         ...   -928.31811308 Eh

For completeness - the Gibbs free energy minus the electronic energy
G-E(el)                           ...      0.04122196 Eh     25.87 kcal/mol


The first frequency considered to be a vibration is 6
The total number of vibrations considered is 39


--------------------------
THERMOCHEMISTRY AT 340.00K
--------------------------

Temperature         ...   340.00 K
Pressure            ...     1.00 atm
Total Mass          ...   200.05 AMU
Quasi RRHO          ...     True
Cut-Off Frequency   ...     1.00 cm^-1

Throughout the following assumptions are being made:
  (1) The electronic state is orbitally nondegenerate
  (2) There are no thermally accessible electronically excited states
  (3) Hindered rotations indicated by low frequency modes are not
      treated as such but are treated as vibrations and this may
      cause some error
  (4) All equations used are the standard statistical mechanics
      equations for an ideal gas
  (5) All vibrations are strictly harmonic

freq.      25.30  E(vib)   ...       0.64 
freq.      34.69  E(vib)   ...       0.63 
freq.      78.47  E(vib)   ...       0.57 
freq.      88.76  E(vib)   ...       0.56 
freq.     147.33  E(vib)   ...       0.49 
freq.     187.13  E(vib)   ...       0.44 
freq.     215.79  E(vib)   ...       0.41 
freq.     292.17  E(vib)   ...       0.34 
freq.     320.49  E(vib)   ...       0.32 
freq.     355.49  E(vib)   ...       0.29 
freq.     360.10  E(vib)   ...       0.29 
freq.     433.47  E(vib)   ...       0.24 
freq.     509.29  E(vib)   ...       0.19 
freq.     528.41  E(vib)   ...       0.18 
freq.     539.74  E(vib)   ...       0.18 
freq.     572.35  E(vib)   ...       0.16 
freq.     601.93  E(vib)   ...       0.15 
freq.     658.81  E(vib)   ...       0.12 
freq.     701.78  E(vib)   ...       0.11 
freq.     841.17  E(vib)   ...       0.07 
freq.     869.21  E(vib)   ...       0.06 
freq.     970.03  E(vib)   ...       0.05 
freq.    1080.86  E(vib)   ...       0.03 
freq.    1088.15  E(vib)   ...       0.03 
freq.    1112.33  E(vib)   ...       0.03 
freq.    1129.37  E(vib)   ...       0.03 
freq.    1153.77  E(vib)   ...       0.03 
freq.    1179.89  E(vib)   ...       0.02 
freq.    1195.60  E(vib)   ...       0.02 
freq.    1261.14  E(vib)   ...       0.02 
freq.    1302.27  E(vib)   ...       0.02 
freq.    1321.28  E(vib)   ...       0.01 
freq.    1362.58  E(vib)   ...       0.01 
freq.    1406.14  E(vib)   ...       0.01 
freq.    1443.78  E(vib)   ...       0.01 
freq.    1494.10  E(vib)   ...       0.01 
freq.    3071.05  E(vib)   ...       0.00 
freq.    3095.93  E(vib)   ...       0.00 
freq.    3131.21  E(vib)   ...       0.00 

------------
INNER ENERGY
------------

The inner energy is: U= E(el) + E(ZPE) + E(vib) + E(rot) + E(trans)
    E(el)   - is the total energy from the electronic structure calculation
              = E(kin-el) + E(nuc-el) + E(el-el) + E(nuc-nuc)
    E(ZPE)  - the the zero temperature vibrational energy from the frequency calculation
    E(vib)  - the the finite temperature correction to E(ZPE) due to population
              of excited vibrational states
    E(rot)  - is the rotational thermal energy
    E(trans)- is the translational thermal energy

Summary of contributions to the inner energy U:
Electronic energy                ...   -928.35933504 Eh
Zero point energy                ...      0.08238175 Eh      51.70 kcal/mol
Thermal vibrational correction   ...      0.01076024 Eh       6.75 kcal/mol
Thermal rotational correction    ...      0.00161507 Eh       1.01 kcal/mol
Thermal translational correction ...      0.00161507 Eh       1.01 kcal/mol
-----------------------------------------------------------------------
Total thermal energy                   -928.26296291 Eh


Summary of corrections to the electronic energy:
(perhaps to be used in another calculation)
Total thermal correction                  0.01399038 Eh       8.78 kcal/mol
Non-thermal (ZPE) correction              0.08238175 Eh      51.70 kcal/mol
-----------------------------------------------------------------------
Total correction                          0.09637212 Eh      60.47 kcal/mol


--------
ENTHALPY
--------

The enthalpy is H = U + kB*T
                kB is Boltzmann's constant
Total thermal energy              ...   -928.26296291 Eh 
Thermal Enthalpy correction       ...      0.00107674 Eh       0.68 kcal/mol
-----------------------------------------------------------------------
Total Enthalpy                    ...   -928.26188617 Eh


Note: Only C1 symmetry has been detected, increase convergence thresholds 
      if your molecule has a higher symmetry. Symmetry factor of 1.0 is   
      used for the rotational entropy correction. 
 

Note: Rotational entropy computed according to Herzberg 
Infrared and Raman Spectra, Chapter V,1, Van Nostrand Reinhold, 1945 
Point Group:  C1, Symmetry Number:   1  
Rotational constants in cm-1:     0.050660     0.017154     0.016166 

Vibrational entropy computed according to the QRRHO of S. Grimme
Chem.Eur.J. 2012 18 9955 using a reference frequency of 100.0 cm-1


-------
ENTROPY
-------

The entropy contributions are T*S = T*(S(el)+S(vib)+S(rot)+S(trans))
     S(el)   - electronic entropy
     S(vib)  - vibrational entropy
     S(rot)  - rotational entropy
     S(trans)- translational entropy
The entropies will be listed as multiplied by the temperature to get
units of energy

Electronic entropy                ...      0.00000000 Eh      0.00 kcal/mol
Vibrational entropy               ...      0.01951287 Eh     12.24 kcal/mol
Rotational entropy                ...      0.01707299 Eh     10.71 kcal/mol
Translational entropy             ...      0.02299358 Eh     14.43 kcal/mol
-----------------------------------------------------------------------
Final entropy term                ...      0.05957945 Eh     37.39 kcal/mol

In case the symmetry of your molecule has not been determined correctly
or in case you have a reason to use a different symmetry number we print 
out the resulting rotational entropy values for sn=1,12:

 non-linear molecules -----------------------------------
|  sn= 1 | S(rot)=       0.01707299 Eh     10.71 kcal/mol|
|  sn= 2 | S(rot)=       0.01632667 Eh     10.25 kcal/mol|
|  sn= 3 | S(rot)=       0.01589010 Eh      9.97 kcal/mol|
|  sn= 4 | S(rot)=       0.01558035 Eh      9.78 kcal/mol|
|  sn= 5 | S(rot)=       0.01534009 Eh      9.63 kcal/mol|
|  sn= 6 | S(rot)=       0.01514378 Eh      9.50 kcal/mol|
|  sn= 7 | S(rot)=       0.01497781 Eh      9.40 kcal/mol|
|  sn= 8 | S(rot)=       0.01483403 Eh      9.31 kcal/mol|
|  sn= 9 | S(rot)=       0.01470721 Eh      9.23 kcal/mol|
|  sn=10 | S(rot)=       0.01459377 Eh      9.16 kcal/mol|
|  sn=11 | S(rot)=       0.01449115 Eh      9.09 kcal/mol|
|  sn=12 | S(rot)=       0.01439746 Eh      9.03 kcal/mol|
 linear molecules ---------------------------------------
|  Dinfh | S(rot)=       0.01065607 Eh      6.69 kcal/mol|
|  Cinfv | S(rot)=       0.01140239 Eh      7.16 kcal/mol|
 --------------------------------------------------------


-------------------
GIBBS FREE ENERGY
-------------------

The Gibbs free energy is G = H - T*S

Total enthalpy                    ...   -928.26188617 Eh 
Total entropy correction          ...     -0.05957945 Eh    -37.39 kcal/mol
-----------------------------------------------------------------------
Final Gibbs free energy         ...   -928.32146562 Eh

For completeness - the Gibbs free energy minus the electronic energy
G-E(el)                           ...      0.03786942 Eh     23.76 kcal/mol


Maximum memory used throughout the entire PROP-calculation: 248.1 MB

--------------------------------
SUGGESTED CITATIONS FOR THIS RUN
--------------------------------

Below you find a list of papers that are relevant to this ORCA run
We neither can nor want to force you to cite these papers, but we appreciate if you do
You receive ORCA, which is the product of decades of hard work by many enthusiastic individuals, for free
The only thing we kindly ask in return is that you cite our papers,
We deeply appreciate it, if you show your appreciation for ORCA by not just citing the generic ORCA reference.

Please note that relegating all ORCA citations to the supporting information does *not* help us.
SI sections are not indexed - citations you put there will not count into any citation statistics
But we need these citations in order to attract the funding resources that allow us to do what we are doing

Therefore, if you are a happy ORCA user, please consider citing a few of the papers listed below in the main body of your paper

In addition to the list printed below, the program has created the file HFE_347pcf2_gauche2.bibtex that contains the list in bibtex format
You can import this file easily into all common literature databanks and citation aid programs

It goes without saying that in many instances, there are alternative algorithms to achieve similar
results as the ones you have gotten from ORCA. It is, of course, also the case that in some instances
ORCA just re-implements algorithms worked out by others. We are fully aware of that and we are also
fully appreciative of our colleagues work. Hence this citation list should not be read as indicating
that the listed papers, which are focused on our own work, are the only ones worth citing. It simply
meant to make it easier for users to cite ORCA specific papers. It is not a substitute for doing your
own literature research and citing the relevant literature in a scientifically appropriate manner.

List of essential papers. We consider these as the minimum necessary citations

  1. Neese, F.
     Software update: the ORCA program system, version 6.0
     WIRES Comput. Molec. Sci. 2025 15(1), e70019
     doi.org/10.1002/wcms.70019

List of papers to cite with high priority. The work reported in these papers was absolutely
necessary for this run to complete.
Our perspective: the developers of density functionals and basis sets usually get cited in chemistry papers
Good! But without the algorithms to do something with them, the functionals or basis sets would not do anything.
Hence, in our opinion, the algorithm design and method developments papers are equally worthy of getting cited

  1. Neese, F.
     An improvement of the resolution of the identity approximation for the formation of the Coulomb matrix
     J. Comp. Chem. 2003 24(14), 1740-1747
     doi.org/10.1002/jcc.10318
  2. Neese, F.; Wennmohs, F.; Hansen, A.; Becker, U.
     Efficient, approximate and parallel Hartree-Fock and hybrid DFT calculations. A 'chain-of-spheres' algorithm for the Hartree-Fock exchange
     Chem. Phys. 2009 356(1-3), 98-109
     doi.org/10.1016/j.chemphys.2008.10.036
  3. Bykov, D.; Petrenko, T.; Izsak, R.; Kossmann, S.; Becker, U.; Valeev, E.; Neese, F.
     Efficient implementation of the analytic second derivatives of Hartree-Fock and hybrid DFT energies: a detailed analysis of different approximations
     Molec. Phys. 2015 113 , 1961-1977
     doi.org/10.1080/00268976.2015.1025114
  4. Helmich-Paris, B.; de Souza, B.; Neese, F.; Izsák, R.
     An improved chain of spheres for exchange algorithm
     J. Chem. Phys. 2021 155(10), 104109
     doi.org/10.1063/5.0058766
  5. Neese, F.
     The SHARK Integral Generation and Digestion System
     J. Comp. Chem. 2022 44(3), 381
     doi.org/10.1002/jcc.26942

List of suggested additional citations. These are papers that are important in the 'surrounding' of 
of this run, or papers that preceded the highly important papers. If you like your results we are grateful for a citation.

  1. Izsak, R.; Neese, F.
     An overlap fitted chain of spheres exchange method
     J. Chem. Phys. 2011 135 , 144105
     doi.org/10.1063/1.3646921
  2. Izsak, R.; Hansen, A.; Neese, F.
     The resolution of identity and chain of spheres approximations for the LPNO-CCSD singles Fock term
     Molec. Phys. 2012 110 , 2413-2417
     doi.org/10.1080/00268976.2012.687466
  3. Neese, F.
     The ORCA program system
     WIRES Comput. Molec. Sci. 2012 2(1), 73-78
     doi.org/10.1002/wcms.81
  4. Izsak, R.; Neese, F.; Klopper, W.
     Robust fitting techniques in the chain of spheres approximation to the Fock exchange: The role of the complementary space
     J. Chem. Phys. 2013 139 , 
     doi.org/10.1063/1.4819264
  5. Neese, F.
     Software update: the ORCA program system, version 4.0
     WIRES Comput. Molec. Sci. 2018 8(1), 1-6
     doi.org/10.1002/wcms.1327
  6. Neese, F.; Wennmohs, F.; Becker, U.; Riplinger, C.
     The ORCA quantum chemistry program package
     J. Chem. Phys. 2020 152(22), 224108
     doi.org/10.1063/5.0004608
  7. Neese, F.
     Software update: The ORCA program system—Version 5.0
     WIRES Comput. Molec. Sci. 2022 12(1), e1606
     doi.org/10.1002/wcms.1606

List of optional additional citations

  1. Neese, F.
     Approximate second-order SCF convergence for spin unrestricted wavefunctions
     Chem. Phys. Lett. 2000 325(1-3), 93-98
     doi.org/10.1016/s0009-2614(00)00662-x

Timings for individual modules:

Sum of individual times          ...    15921.533 sec (= 265.359 min)
Startup calculation              ...      104.616 sec (=   1.744 min)   0.7 %
SCF iterations                   ...     6453.552 sec (= 107.559 min)  40.5 %
Property integrals               ...     1700.480 sec (=  28.341 min)  10.7 %
SCF Response                     ...     1290.643 sec (=  21.511 min)   8.1 %
Property calculations            ...     3618.040 sec (=  60.301 min)  22.7 %
SCF Gradient evaluation          ...     2753.872 sec (=  45.898 min)  17.3 %
Geometry relaxation              ...        0.329 sec (=   0.005 min)   0.0 %
                             ****ORCA TERMINATED NORMALLY****
TOTAL RUN TIME: 0 days 4 hours 25 minutes 27 seconds 794 msec
