
                                 *****************
                                 * O   R   C   A *
                                 *****************

                                            #,                                       
                                            ###                                      
                                            ####                                     
                                            #####                                    
                                            ######                                   
                                           ########,                                 
                                     ,,################,,,,,                         
                               ,,#################################,,                 
                          ,,##########################################,,             
                       ,#########################################, ''#####,          
                    ,#############################################,,   '####,        
                  ,##################################################,,,,####,       
                ,###########''''           ''''###############################       
              ,#####''   ,,,,##########,,,,          '''####'''          '####       
            ,##' ,,,,###########################,,,                        '##       
           ' ,,###''''                  '''############,,,                           
         ,,##''                                '''############,,,,        ,,,,,,###''
      ,#''                                            '''#######################'''  
     '                                                          ''''####''''         
             ,#######,   #######,   ,#######,      ##                                
            ,#'     '#,  ##    ##  ,#'     '#,    #''#        ,####,    ,#,          
            ##       ##  ##   ,#'  ##            #'  '#       #'       ,# #          
            ##       ##  #######   ##           ,######,      #####,      #          
            '#,     ,#'  ##    ##  '#,     ,#' ,#      #,     #,   #      #          
             '#######'   ##     ##  '#######'  #'      '#     '####' #    #          



                #########################################################
                #                        -***-                          #
                #          Department of theory and spectroscopy        #
                #                                                       #
                #                      Frank Neese                      #
                #                                                       #
                #     Directorship, Architecture, Infrastructure        #
                #                    SHARK, DRIVERS                     #
                #        Core code/Algorithms in most modules           #
                #                                                       #
                #        Max Planck Institute fuer Kohlenforschung      #
                #                Kaiser Wilhelm Platz 1                 #
                #                 D-45470 Muelheim/Ruhr                 #
                #                      Germany                          #
                #                                                       #
                #                  All rights reserved                  #
                #                        -***-                          #
                #########################################################


                         Program Version 6.1.1  -  RELEASE   -
                                (GIT: $487d211c$)
                          ($2025-11-21 10:33:24 +0100$)


 With contributions from (in alphabetic order):
[Max-Planck-Institut fuer Kohlenforschung]                               
  Daniel Aravena         : Magnetic Suceptibility                        
  Michael Atanasov       : Ab Initio Ligand Field Theory (pilot matlab implementation)
  Alexander A. Auer      : GIAO ZORA, VPT2 properties, NMR spectrum      
  Ute Becker             : All parallelization in ORCA, NUMFREQ, NUMCALC 
  Giovanni Bistoni       : ED, misc. LED, open-shell LED, HFLD           
  Dmytro Bykov           : pre 5.0 version of the SCF Hessian            
  Marcos Casanova-Páez   : Triplet and SCS-CIS(D). UHF-(DLPNO)-IP/EA/STEOM-CCSD. UHF-CVS-IP/STEOM-CCSD   
  Vijay G. Chilkuri      : MRCI spin determinant printing, contributions to CSF-ICE 
  Pauline Colinet        : FMM embedding                                 
  Dipayan Datta          : RHF DLPNO-CCSD density                        
  Achintya Kumar Dutta   : EOM-CC, STEOM-CC                              
  Nicolas Foglia         : Exact transition moments, OPA infrastructure, MCD improvements    
  Dmitry Ganyushin       : Spin-Orbit,Spin-Spin,Magnetic field MRCI      
  Miquel Garcia-Rates    : C-PCM and meta-GGA Hessian, CCSD/C-PCM, Gaussian charge scheme 
  Tiago L. C. Gouveia    : GS-ROHF, GS-ROCIS                             
  Yang Guo               : DLPNO-NEVPT2, F12-NEVPT2, CIM, IAO-localization        
  Andreas Hansen         : Spin unrestricted coupled pair/coupled cluster methods 
  Ingolf Harden          : AUTO-CI MPn and infrastructure                
  Benjamin Helmich-Paris : MC-RPA, TRAH-(SCF,CASSCF), AVAS, COSX integrals, SCF dyn. polar., MC-PDFT, srDFT 
  Lee Huntington         : MR-EOM, pCC                                   
  Robert Izsak           : Overlap fitted RIJCOSX, COSX-SCS-MP3, EOM     
  Riya Kayal             : Wick's Theorem for AUTO-CI, AUTO-CI UHF-CCSDT 
  Emily Kempfer          : AUTO-CI RHF CISDT and CCSDT, approximate NEVPT4
  Christian Kollmar      : KDIIS, OOCD, Brueckner-CCSD(T), CCSD density, CASPT2, CASPT2-K, improved NEVPT2 
  Axel Koslowski         : Symmetry handling                             
  Simone Kossmann        : meta-GGA functionals, TD-DFT gradient, OOMP2, (MP2 Hessian; deprecated post 5.0) 
  Lucas Lang             : DCDCAS, Hyperfine gauge corrections, ICE-SOC+SSC
  Marvin Lechner         : AUTO-CI (C++ implementation), FIC-MRCC        
  Spencer Leger          : CASSCF response                               
  Dagmar Lenk            : GEPOL surface, SMD, ORCA-2-JSON               
  Dimitrios Liakos       : Extrapolation schemes; Compound Job, Property file
  Dimitrios Manganas     : Further ROCIS development; embedding schemes. LFT, Crystal Embedding 
  Dimitrios Pantazis     : SARC Basis sets                               
  Anastasios Papadopoulos: AUTO-CI, single reference methods and gradients 
  Taras Petrenko         : pre 6.0 DFT Hessian and TD-DFT gradient,  ECA, NRVS 
  Petra Pikulova         : Analytic Raman intensities                    
  Peter Pinski           : DLPNO-MP2, DLPNO-MP2 Gradient                 
  Shashank Vittal Rao    : ES-AILFT, MagRelax                            
  Christoph Reimann      : Effective Core Potentials                     
  Marius Retegan         : Local ZFS, SOC                                
  Christoph Riplinger    : Optimizer, TS searches, QM/MM, DLPNO-CCSD(T), (RO)-DLPNO pert. Triples 
  Michael Roemelt        : Original ROCIS implementation, recursive CI coupling coefficients
  Masaaki Saitow         : Open-shell DLPNO-CCSD energy and density      
  Barbara Sandhoefer     : DKH picture change effects                    
  Yorick L. A. Schmerwitz: GMF and freeze-and-release deltaSCF, NEB S-IDPP initial path                    
  Kantharuban Sivalingam : CASSCF convergence/infrastructure, NEVPT2, NEVPT3, NEVPT4(SD), FIC-MRCI and CEPA variants
  Bernardo de Souza      : ESD, SOC TD-DFT                               
  Georgi L. Stoychev     : AutoAux, RI-MP2 NMR, DLPNO-MP2 response, X2C  
  Van Anh Tran           : RI-MP2 g-tensors                              
  Willem Van den Heuvel  : Paramagnetic NMR                              
  Zikuan Wang            : NOTCH, Electric field optimization            
  Frank Wennmohs         : Technical directorship and infrastructure     
  Hang Xu                : AUTO-CI-Response properties                   
                                                                         
[FACCTs GmbH]                                                            
  Markus Bursch, Nicolas Foglia, Miquel Garcia-Rates, Ingolf Harden, Hagen Neugebauer, Anastasios Papadopoulos, 
  Christoph Riplinger, Bernardo de Souza, Georgi L. Stoychev                                                    
                                                                 
  APM, various basis sets, CI-OPT, improved COSX, DLPNO-Multilevel,           
  DOCKER, DRACO, updates on ESD, Fragmentator, GOAT, IRC, LR-CPCM, L-BFGS, MBIS, meta-GGA TD-DFT gradient, ML-optimized integration grids, 
  MM, NACMEs, nearIR, NEB, NEB-TS, NL-DFT gradient (VV10), 2- and 3-layer-ONIOM, interface openCOSMO-RS, QMMM,   
  Crystal-QMMM, RESP, rigid body optimization, SF, symmetry and pop. for TD-DFT, various functionals, SOLVATOR                                   
                                                                         
[Other institutions]                                                     
  V. Asgeirsson          : NEB                                           
  Christoph Bannwarth    : sTDA-DFT, sTD-DFT, PBEh-3c, B97-3c, D3        
  Giovanni Bistoni       : ETS/NOCV, ADLD/ADEX, COVALED                  
  Martin Brehm           : Molecular dynamics                            
  Ronald Cardenas        : ETS/NOCV                                      
  Martina Colucci        : COVALED                                       
  Sebastian Ehlert       : rSCAN, r2SCAN, r2SCAN-3c, D4, dhf basis sets  
  Marvin Friede          : D4 for Fr, Ra, Ac-Lr                          
  Lars Goerigk           : TD-DFT with DH, B97 family of functionals     
  Stefan Grimme          : VdW corrections, initial TS optimization, DFT functionals, gCP, sTDA/sTD-DF 
  Waldemar Hujo          : DFT-NL                                        
  H. Jonsson             : NEB                                           
  Holger Kruse           : gCP                                           
  Marcel Mueller         : wB97X-3c, vDZP basis set                      
  Hagen Neugebauer       : wr2SCAN, Native XTB                           
  Gianluca Regni         : ADLD/ADEX                                     
  Tobias Risthaus        : pre 6.0 range-separated hybrid DFT and stability analysis
  Lukas Wittmann         : regularized MP2, r2SCAN double-hybrids, wr2SCAN        
                                                                         
We gratefully acknowledge several colleagues who have allowed us to      
interface, adapt or use parts of their codes:                            
  Ed Valeev, F. Pavosevic, A. Kumar             : LibInt (2-el integral package), F12 methods 
  Garnet Chan, S. Sharma, J. Yang, R. Olivares  : DMRG                   
  Ulf Ekstrom                                   : XCFun DFT Library      
  Mihaly Kallay                                 : mrcc  (arbitrary order and MRCC methods)
  Frank Weinhold                                : gennbo (NPA and NBO analysis)           
  Simon Mueller                                 : openCOSMO-RS                            
  Christopher J. Cramer and Donald G. Truhlar   : smd solvation model                     
  S Lehtola, MJT Oliveira, MAL Marques          : LibXC Library                           
  Liviu Ungur et al                             : ANISO software                          


 Your calculation uses the libint2 library for the computation of 2-el integrals
 For citations please refer to: http://libint.valeyev.net

 Your ORCA version has been built with support for libXC version: 7.0.0
 For citations please refer to: https://libxc.gitlab.io

 This ORCA versions uses:
   CBLAS   interface :  Fast vector & matrix operations
   LAPACKE interface :  Fast linear algebra routines
   SCALAPACK package :  Parallel linear algebra routines
   Shared memory     :  Shared parallel matrices
   BLAS/LAPACK       :  OpenBLAS 0.3.29  USE64BITINT DYNAMIC_ARCH NO_AFFINITY Cooperlake SINGLE_THREADED
        Core in use  :  Cooperlake
   Copyright (c) 2011-2014, The OpenBLAS Project


  ***********************************
  * Starting time: Wed Feb 18 15:15:08 2026
  * Host name:     Breado
  * Process ID:    14941
  * Working dir.:  /home/bread/other_data/B3LYP_6-311+G2dp
  ***********************************

Warning: RI is on but no J-basis has been assigned. Assigning Def2/J (nothing to worry about!)
================================================================================

----- Orbital basis set information -----
Your calculation utilizes the basis: 6-311+G(2d,p)
   H, Li - Ne  : R. Krishnan, J. S. Binkley, R. Seeger and J. A. Pople, J. Chem. Phys. 72, 650 (1980).
   Na - Ar     : A. D. McLean and G. S. Chandler J. Chem. Phys. 72, 5639, (1980).
   K  - Ca     : J.-P. Blaudeau, M. P. McGrath, L. A. Curtiss and L. Radom, J. Chem. Phys. 107, 5016 (1997).
   Ga - Kr     : L. A. Curtiss, M. P. McGrath, J.-P. Blandeau, N. E. Davis, R. C. Binning and L. Radom, J. Chem. Phys. 103, 6104 (1995).
   Pol./Diff.
   H, Li - Cl  : T. Clark, J. Chandrasekhar and P. v. R. Schleyer, J. Comp. Chem. 4, 294 (1983).
   H - Ne      : M. J. Frisch, J. A. Pople and J. S. Binkley, J. Chem. Phys. 80, 3265 (1984).

----- AuxJ basis set information -----
Your calculation utilizes the auxiliary basis: def2/J
   H-Rn: F. Weigend, Phys. Chem. Chem. Phys. 8, 1057 (2006).
   Fr-Lr: K. Eichkorn, F. Weigend, O. Treutler, R. Ahlrichs; Theor. Chem. Acc. 97, 119 (1997).

================================================================================
                                        WARNINGS
                       Please study these warnings very carefully!
================================================================================


WARNING: Geometry Optimization
  ===> : Switching off AutoStart
         For restart on a previous wavefunction, please use MOREAD

================================================================================
                                       INPUT FILE
================================================================================
NAME = HFE_347pcf2_gauche2.inp
|  1> # avogadro generated ORCA input file 
|  2> # Basic Mode
|  3> # 
|  4> ! B3LYP 6-311+G(2d,p) OPT FREQ 
|  5> % FREQ TEMP 305, 320, 340 END
|  6> 
|  7> * xyz 0 1
|  8>    F        1.57550       -1.24070        1.22680
|  9>    F        2.24660       -1.31560       -0.85780
| 10>    F        1.24280        1.48160        1.02660
| 11>    F        1.89540        1.41730       -1.04930
| 12>    F       -2.21040        0.58860       -1.24560
| 13>    F       -2.97990        0.67620        0.79360
| 14>    F       -2.55970       -1.25630       -0.13610
| 15>    O        0.13720       -0.61470       -0.40400
| 16>    C        1.49250       -0.61950        0.02550
| 17>    C       -0.71760        0.07520        0.49690
| 18>    C        2.00800        0.78950        0.14680
| 19>    C       -2.13040        0.01840       -0.02340
| 20>    H       -0.53430        1.14710        0.50530
| 21>    H       -0.65750       -0.34600        1.50500
| 22>    H        3.05020        0.82730        0.47350
| 23> *
| 24> 
| 25> 
| 26>                          ****END OF INPUT****
================================================================================

                       *****************************
                       * Geometry Optimization Run *
                       *****************************

Geometry optimization settings:
Update method            Update   .... BFGS
Choice of coordinates    CoordSys .... (2022) Redundant Internals
Initial Hessian          InHess   .... Almloef's Model
Max. no of cycles        MaxIter  .... 50

Convergence Tolerances:
Energy Change            TolE     ....  5.0000e-06 Eh
Max. Gradient            TolMAXG  ....  3.0000e-04 Eh/bohr
RMS Gradient             TolRMSG  ....  1.0000e-04 Eh/bohr
Max. Displacement        TolMAXD  ....  4.0000e-03 bohr
RMS Displacement         TolRMSD  ....  2.0000e-03 bohr
Strict Convergence                .... False

------------------------------------------------------------------------------
                        ORCA OPTIMIZATION COORDINATE SETUP
------------------------------------------------------------------------------

The optimization will be done in redundant internal coordinates (2022)
Making redundant internal coordinates   ...  (2022 redundants) done
Evaluating the initial hessian          ...  (Almloef) done
Evaluating the coordinates              ...  done
Calculating the B-matrix                .... done
Calculating the G-matrix                .... done
The number of degrees of freedom        ....   57

    -----------------------------------------------------------------
                    Redundant Internal Coordinates


    -----------------------------------------------------------------
         Definition                    Initial Value    Approx d2E/dq
    -----------------------------------------------------------------
      1. B(C   8,F   1)                  1.3540         0.593374   
      2. B(C   8,O   7)                  1.4217         0.498017   
      3. B(C   8,F   0)                  1.3550         0.591399   
      4. B(C   9,O   7)                  1.4207         0.499994   
      5. B(C  10,F   3)                  1.3555         0.590144   
      6. B(C  10,C   8)                  1.5052         0.409154   
      7. B(C  10,F   2)                  1.3559         0.589254   
      8. B(C  11,F   6)                  1.3498         0.602785   
      9. B(C  11,F   5)                  1.3498         0.602801   
     10. B(C  11,C   9)                  1.5066         0.407060   
     11. B(C  11,F   4)                  1.3510         0.599970   
     12. B(H  12,C   9)                  1.0875         0.363433   
     13. B(H  13,C   9)                  1.0942         0.354579   
     14. B(H  14,C  10)                  1.0929         0.356337   
     15. A(C   8,O   7,C   9)          112.5596         0.396641   
     16. A(F   1,C   8,C  10)          110.0634         0.395699   
     17. A(F   1,C   8,O   7)          109.6069         0.407012   
     18. A(O   7,C   8,C  10)          110.3438         0.385431   
     19. A(F   0,C   8,C  10)          109.6777         0.395467   
     20. A(F   0,C   8,F   1)          107.9723         0.417779   
     21. A(F   0,C   8,O   7)          109.1341         0.406772   
     22. A(H  12,C   9,H  13)          111.2872         0.290555   
     23. A(C  11,C   9,H  13)          110.8030         0.328098   
     24. A(O   7,C   9,H  13)          111.3620         0.337428   
     25. A(C  11,C   9,H  12)          101.4132         0.329436   
     26. A(O   7,C   9,H  12)          112.4662         0.338819   
     27. A(O   7,C   9,C  11)          109.0818         0.385352   
     28. A(F   3,C  10,H  14)          109.0854         0.345773   
     29. A(F   2,C  10,H  14)          109.0595         0.345685   
     30. A(F   2,C  10,F   3)          106.8137         0.417103   
     31. A(F   3,C  10,C   8)          109.5101         0.395320   
     32. A(C   8,C  10,H  14)          112.5235         0.328644   
     33. A(F   2,C  10,C   8)          109.6825         0.395215   
     34. A(F   4,C  11,C   9)          110.6111         0.396110   
     35. A(F   5,C  11,F   6)          108.0959         0.420381   
     36. A(F   4,C  11,F   6)          107.7105         0.420028   
     37. A(F   4,C  11,F   5)          107.7354         0.420030   
     38. A(F   6,C  11,C   9)          111.2652         0.396436   
     39. A(F   5,C  11,C   9)          111.2705         0.396438   
     40. D(F   1,C   8,O   7,C   9)    178.6391         0.019603   
     41. D(F   0,C   8,O   7,C   9)     60.5858         0.019603   
     42. D(C  10,C   8,O   7,C   9)    -59.9962         0.019603   
     43. D(H  13,C   9,O   7,C   8)    -56.7360         0.019764   
     44. D(H  12,C   9,O   7,C   8)     68.9670         0.019764   
     45. D(C  11,C   9,O   7,C   8)   -179.3401         0.019764   
     46. D(F   2,C  10,C   8,F   0)    -61.7161         0.013263   
     47. D(F   3,C  10,C   8,O   7)    -58.3750         0.013263   
     48. D(F   3,C  10,C   8,F   1)     62.7180         0.013263   
     49. D(F   3,C  10,C   8,F   0)   -178.6309         0.013263   
     50. D(F   2,C  10,C   8,O   7)     58.5397         0.013263   
     51. D(F   2,C  10,C   8,F   1)    179.6328         0.013263   
     52. D(F   4,C  11,C   9,H  13)    177.5026         0.013131   
     53. D(F   4,C  11,C   9,H  12)     59.2803         0.013131   
     54. D(F   4,C  11,C   9,O   7)    -59.5585         0.013131   
     55. D(F   5,C  11,C   9,H  13)     57.7896         0.013131   
     56. D(F   5,C  11,C   9,H  12)    -60.4327         0.013131   
     57. D(F   5,C  11,C   9,O   7)   -179.2715         0.013131   
    -----------------------------------------------------------------

Number of atoms                         .... 15
Number of degrees of freedom            .... 57


         *************************************************************
         *                GEOMETRY OPTIMIZATION CYCLE   1            *
         *************************************************************
---------------------------------
CARTESIAN COORDINATES (ANGSTROEM)
---------------------------------
  F      1.575500   -1.240700    1.226800
  F      2.246600   -1.315600   -0.857800
  F      1.242800    1.481600    1.026600
  F      1.895400    1.417300   -1.049300
  F     -2.210400    0.588600   -1.245600
  F     -2.979900    0.676200    0.793600
  F     -2.559700   -1.256300   -0.136100
  O      0.137200   -0.614700   -0.404000
  C      1.492500   -0.619500    0.025500
  C     -0.717600    0.075200    0.496900
  C      2.008000    0.789500    0.146800
  C     -2.130400    0.018400   -0.023400
  H     -0.534300    1.147100    0.505300
  H     -0.657500   -0.346000    1.505000
  H      3.050200    0.827300    0.473500

----------------------------
CARTESIAN COORDINATES (A.U.)
----------------------------
  NO LB      ZA    FRAG     MASS         X           Y           Z
   0 F     9.0000    0    18.998    2.977264   -2.344583    2.318316
   1 F     9.0000    0    18.998    4.245459   -2.486124   -1.621007
   2 F     9.0000    0    18.998    2.348552    2.799818    1.939993
   3 F     9.0000    0    18.998    3.581787    2.678309   -1.982890
   4 F     9.0000    0    18.998   -4.177051    1.112293   -2.353843
   5 F     9.0000    0    18.998   -5.631195    1.277833    1.499687
   6 F     9.0000    0    18.998   -4.837132   -2.374063   -0.257192
   7 O     8.0000    0    15.999    0.259270   -1.161615   -0.763449
   8 C     6.0000    0    12.011    2.820416   -1.170685    0.048188
   9 C     6.0000    0    12.011   -1.356067    0.142107    0.939005
  10 C     6.0000    0    12.011    3.794570    1.491939    0.277412
  11 C     6.0000    0    12.011   -4.025873    0.034771   -0.044220
  12 H     1.0000    0     1.008   -1.009681    2.167705    0.954879
  13 H     1.0000    0     1.008   -1.242495   -0.653845    2.844038
  14 H     1.0000    0     1.008    5.764043    1.563370    0.894785

--------------------------------
INTERNAL COORDINATES (ANGSTROEM)
--------------------------------
 F      0   0   0     0.000000000000     0.00000000     0.00000000
 F      1   0   0     2.191242200214     0.00000000     0.00000000
 F      1   2   0     2.749852108751    90.09355006     0.00000000
 F      3   1   2     2.177012186461    90.22425874     0.35296628
 F      4   3   1     4.193193415525    75.93372403    85.69446382
 F      5   4   3     2.181316265469   107.08054245     1.33679615
 F      5   4   3     2.180976100282   107.46846186   298.05368267
 O      1   2   3     2.262761925170    61.21614647    62.54808888
 C      2   1   3     1.354046125507    36.02780568   333.74686837
 C      8   1   2     1.420656841042    93.42681437   197.81184094
 C      4   3   1     1.355531928801    36.59961993   332.66665868
 C      6   5   4     1.349755566760    36.15212786   296.82148733
 H     10   8   1     1.087492096523   112.46622839    98.54972767
 H     10   8   1     1.094206132317   111.36200472   332.84681044
 H     11   4   3     1.092859812602   109.08543249   242.25564236

---------------------------
INTERNAL COORDINATES (A.U.)
---------------------------
 F      0   0   0     0.000000000000     0.00000000     0.00000000
 F      1   0   0     4.140847651496     0.00000000     0.00000000
 F      1   2   0     5.196467394324    90.09355006     0.00000000
 F      3   1   2     4.113956822621    90.22425874     0.35296628
 F      4   3   1     7.923987181904    75.93372403    85.69446382
 F      5   4   3     4.122090353204   107.08054245     1.33679615
 F      5   4   3     4.121447534160   107.46846186   298.05368267
 O      1   2   3     4.276000344836    61.21614647    62.54808888
 C      2   1   3     2.558776349905    36.02780568   333.74686837
 C      8   1   2     2.684652359851    93.42681437   197.81184094
 C      4   3   1     2.561584111221    36.59961993   332.66665868
 C      6   5   4     2.550668368912    36.15212786   296.82148733
 H     10   8   1     2.055062235232   112.46622839    98.54972767
 H     10   8   1     2.067749924136   111.36200472   332.84681044
 H     11   4   3     2.065205748586   109.08543249   242.25564236

---------------------
BASIS SET INFORMATION
---------------------
There are 4 groups of distinct atoms

 Group   1 Type F   : 12s6p2d contracted to 5s4p2d pattern {63111/3111/11}
 Group   2 Type O   : 12s6p2d contracted to 5s4p2d pattern {63111/3111/11}
 Group   3 Type C   : 12s6p2d contracted to 5s4p2d pattern {63111/3111/11}
 Group   4 Type H   : 5s1p contracted to 3s1p pattern {311/1}

Atom   0F    basis set group =>   1
Atom   1F    basis set group =>   1
Atom   2F    basis set group =>   1
Atom   3F    basis set group =>   1
Atom   4F    basis set group =>   1
Atom   5F    basis set group =>   1
Atom   6F    basis set group =>   1
Atom   7O    basis set group =>   2
Atom   8C    basis set group =>   3
Atom   9C    basis set group =>   3
Atom  10C    basis set group =>   3
Atom  11C    basis set group =>   3
Atom  12H    basis set group =>   4
Atom  13H    basis set group =>   4
Atom  14H    basis set group =>   4
---------------------------------
AUXILIARY/J BASIS SET INFORMATION
---------------------------------
There are 4 groups of distinct atoms

 Group   1 Type F   : 12s5p4d2f1g contracted to 6s4p3d1f1g pattern {711111/2111/211/2/1}
 Group   2 Type O   : 12s5p4d2f1g contracted to 6s4p3d1f1g pattern {711111/2111/211/2/1}
 Group   3 Type C   : 12s5p4d2f1g contracted to 6s4p3d1f1g pattern {711111/2111/211/2/1}
 Group   4 Type H   : 5s2p1d contracted to 3s1p1d pattern {311/2/1}

Atom   0F    basis set group =>   1
Atom   1F    basis set group =>   1
Atom   2F    basis set group =>   1
Atom   3F    basis set group =>   1
Atom   4F    basis set group =>   1
Atom   5F    basis set group =>   1
Atom   6F    basis set group =>   1
Atom   7O    basis set group =>   2
Atom   8C    basis set group =>   3
Atom   9C    basis set group =>   3
Atom  10C    basis set group =>   3
Atom  11C    basis set group =>   3
Atom  12H    basis set group =>   4
Atom  13H    basis set group =>   4
Atom  14H    basis set group =>   4
------------------------------------------------------------------------------
                             ORCA STARTUP CALCULATIONS
                           -- RI-GTO INTEGRALS CHOSEN --
------------------------------------------------------------------------------
------------------------------------------------------------------------------
                   ___                                                        
                  /   \      - P O W E R E D   B Y -                         
                 /     \                                                     
                 |  |  |   _    _      __       _____    __    __             
                 |  |  |  | |  | |    /  \     |  _  \  |  |  /  |          
                  \  \/   | |  | |   /    \    | | | |  |  | /  /          
                 / \  \   | |__| |  /  /\  \   | |_| |  |  |/  /          
                |  |  |   |  __  | /  /__\  \  |    /   |      \           
                |  |  |   | |  | | |   __   |  |    \   |  |\   \          
                \     /   | |  | | |  |  |  |  | |\  \  |  | \   \       
                 \___/    |_|  |_| |__|  |__|  |_| \__\ |__|  \__/        
                                                                              
                      - O R C A' S   B I G   F R I E N D -                    
                                      &                                       
                       - I N T E G R A L  F E E D E R -                       
                                                                              
 v1 FN, 2020, v2 2021, v3 2022-2024                                           
------------------------------------------------------------------------------


----------------------
SHARK INTEGRAL PACKAGE
----------------------

Number of atoms                             ...     15
Number of basis functions                   ...    342
Number of shells                            ...    144
Maximum angular momentum                    ...      2
Integral batch strategy                     ... SHARK/LIBINT Hybrid
RI-J (if used) integral strategy            ... SPLIT-RIJ (Revised 2003 algorithm where possible)
Printlevel                                  ...      1
Contraction scheme used                     ... SEGMENTED contraction
Prescreening option                         ... SCHWARTZ
   Thresh                                   ... 2.500e-11
   Tcut                                     ... 2.500e-12
   Tpresel                                  ... 2.500e-12 
Coulomb Range Separation                    ... NOT USED
Exchange Range Separation                   ... NOT USED
Multipole approximations                    ... NOT USED
Finite Nucleus Model                        ... NOT USED
CABS basis                                  ... NOT available
Auxiliary Coulomb fitting basis             ... AVAILABLE
   # of basis functions in Aux-J            ...    621
   # of shells in Aux-J                     ...    195
   Maximum angular momentum in Aux-J        ...      4
Auxiliary J/K fitting basis                 ... NOT available
Auxiliary Correlation fitting basis         ... NOT available
Auxiliary 'external' fitting basis          ... NOT available

Checking pre-screening integrals            ... done (  0.0 sec) Dimension = 144
   => SHARK Basis and OBASIS are compatible. Storing Pre-screening
Shell pair information
Shell pair cut-off parameter TPreSel        ...   2.5e-12
Total number of shell pairs                 ...     10440
Shell pairs after pre-screening             ...      8869
Total number of primitive shell pairs       ...     33672
Primitive shell pairs kept                  ...     20296
          la=0 lb=0:   1978 shell pairs
          la=1 lb=0:   3098 shell pairs
          la=1 lb=1:   1209 shell pairs
          la=2 lb=0:   1310 shell pairs
          la=2 lb=1:   1046 shell pairs
          la=2 lb=2:    228 shell pairs

Checking whether 4 symmetric matrices of dimension 342 fit in memory
:Max Core in MB      =   4096.00
 MB in use           =     14.26
 MB left             =   4081.74
 MB needed           =      1.79
 Data fit in memory  = YES
Calculating RI/J V-Matrix + Cholesky decomp.... done (  0.1 sec)
Calculating Nuclear repulsion               ... done (  0.0 sec) ENN=    863.221943248253 Eh

Diagonalization of the overlap matrix:
Smallest eigenvalue                        ... 4.738e-05
Time for diagonalization                   ...    0.026 sec
Threshold for overlap eigenvalues          ... 1.000e-07
Number of eigenvalues below threshold      ... 0
Time for construction of square roots      ...    0.014 sec
Total time needed                          ...    0.041 sec

-------------------
DFT GRID GENERATION
-------------------

General Integration Accuracy     IntAcc      ... 4.388
Radial Grid Type                 RadialGrid  ... OptM3 with GC (2021)
Angular Grid (max. ang.)         AngularGrid ... 4 (Lebedev-302)
Angular grid pruning method      GridPruning ... 4 (adaptive)
Weight generation scheme         WeightScheme... mBecke (2022)
Basis function cutoff            BFCut       ... 1.0000e-11
Integration weight cutoff        WCut        ... 1.0000e-14
Partially contracted basis set               ... off
Rotationally invariant grid construction     ... off
Angular grids for H and He will be reduced by one unit
Diffuse basis detected: some atoms will have their outermost
                        angular grid increased by 1.

Total number of grid points                  ...    85963
Total number of batches                      ...     1351
Average number of points per batch           ...       63
Average number of grid points per atom       ...     5731

--------------------
COSX GRID GENERATION
--------------------

GRIDX 1
-------
General Integration Accuracy     IntAcc      ... 3.816
Radial Grid Type                 RadialGrid  ... OptM3 with GC (2021)
Angular Grid (max. ang.)         AngularGrid ... 1 (Lebedev-50)
Angular grid pruning method      GridPruning ... 4 (adaptive)
Weight generation scheme         WeightScheme... mBecke (2022)
Basis function cutoff            BFCut       ... 1.0000e-11
Integration weight cutoff        WCut        ... 1.0000e-14
Partially contracted basis set               ... on
Rotationally invariant grid construction     ... off
Angular grids for H and He will be reduced by one unit
Diffuse basis detected: some atoms will have their outermost
                        angular grid increased by 1.

Total number of grid points                  ...    10908
Total number of batches                      ...       94
Average number of points per batch           ...      116
Average number of grid points per atom       ...      727
UseSFitting                                  ... on

GRIDX 2
-------
General Integration Accuracy     IntAcc      ... 4.020
Radial Grid Type                 RadialGrid  ... OptM3 with GC (2021)
Angular Grid (max. ang.)         AngularGrid ... 2 (Lebedev-110)
Angular grid pruning method      GridPruning ... 4 (adaptive)
Weight generation scheme         WeightScheme... mBecke (2022)
Basis function cutoff            BFCut       ... 1.0000e-11
Integration weight cutoff        WCut        ... 1.0000e-14
Partially contracted basis set               ... on
Rotationally invariant grid construction     ... off
Angular grids for H and He will be reduced by one unit
Diffuse basis detected: some atoms will have their outermost
                        angular grid increased by 1.

Total number of grid points                  ...    28174
Total number of batches                      ...      227
Average number of points per batch           ...      124
Average number of grid points per atom       ...     1878
UseSFitting                                  ... on

GRIDX 3
-------
General Integration Accuracy     IntAcc      ... 4.338
Radial Grid Type                 RadialGrid  ... OptM3 with GC (2021)
Angular Grid (max. ang.)         AngularGrid ... 3 (Lebedev-194)
Angular grid pruning method      GridPruning ... 4 (adaptive)
Weight generation scheme         WeightScheme... mBecke (2022)
Basis function cutoff            BFCut       ... 1.0000e-11
Integration weight cutoff        WCut        ... 1.0000e-14
Partially contracted basis set               ... on
Rotationally invariant grid construction     ... off
Angular grids for H and He will be reduced by one unit
Diffuse basis detected: some atoms will have their outermost
                        angular grid increased by 1.

Total number of grid points                  ...    60828
Total number of batches                      ...      482
Average number of points per batch           ...      126
Average number of grid points per atom       ...     4055
UseSFitting                                  ... on
Grids setup in   2.6 sec
Initializing property integral containers    ... done (  0.0 sec)

SHARK setup successfully completed in   3.1 seconds

Maximum memory used throughout the entire STARTUP-calculation: 47.2 MB
-------------------------------------------------------------------------------
                                 ORCA GUESS
                   Start orbitals & Density for SCF / CASSCF
-------------------------------------------------------------------------------

------------
SCF SETTINGS
------------
Hamiltonian:
 Density Functional     Method          .... DFT(GTOs)
 Exchange Functional    Exchange        .... B88
   X-Alpha parameter    XAlpha          ....  0.666667
   Becke's b parameter  XBeta           ....  0.004200
 Correlation Functional Correlation     .... LYP
 LDA part of GGA corr.  LDAOpt          .... VWN-5
 Gradients option       PostSCFGGA      .... off
 Hybrid DFT is turned on
   Fraction HF Exchange ScalHFX         ....  0.200000
   Scaling of DF-GGA-X  ScalDFX         ....  0.720000
   Scaling of DF-GGA-C  ScalDFC         ....  0.810000
   Scaling of DF-LDA-C  ScalLDAC        ....  1.000000
   Perturbative correction              ....  0.000000
   NL short-range parameter             ....  4.800000
 RI-approximation to the Coulomb term is turned on
   Number of AuxJ basis functions       .... 621
   RIJ-COSX (HFX calculated with COS-X)).... on


General Settings:
 Integral files         IntName         .... HFE_347pcf2_gauche2
 Hartree-Fock type      HFTyp           .... RHF
 Total Charge           Charge          ....    0
 Multiplicity           Mult            ....    1
 Number of Electrons    NEL             ....   98
 Basis Dimension        Dim             ....  342
 Nuclear Repulsion      ENuc            ....    863.2219432483 Eh

Convergence Acceleration:
 AO-DIIS                CNVDIIS         .... on
   Start iteration      DIISMaxIt       ....    12
   Startup error        DIISStart       ....  0.200000
   # of expansion vecs  DIISMaxEq       ....     5
   Bias factor          DIISBfac        ....   1.050
   Max. coefficient     DIISMaxC        ....  10.000
 MO-DIIS                CNVKDIIS        .... off
 Trust-Rad. Augm. Hess. CNVTRAH         .... auto
   Auto Start mean grad. ratio tolernc. ....  1.125000
   Auto Start start iteration           ....    50
   Auto Start num. interpolation iter.  ....    10
   Max. Number of Micro iterations      ....    24
   Max. Number of Macro iterations      .... Maxiter - #DIIS iter
   Number of Davidson start vectors     ....     2
   Converg. threshold    (grad. norm)   ....   1.000e-05
   Grad. Scal. Fac. for Micro threshold ....   0.100
   Minimum threshold for Micro iter.    ....   1.000e-02
   NR start threshold (gradient norm)   ....   1.000e-04
   Initial trust radius                 ....   0.400
   Minimum AH scaling param. (alpha)    ....   1.000
   Maximum AH scaling param. (alpha)    .... 1000.000
   Quad. conv. algorithm                .... NR
   White noise on init. David. guess    .... on
   Maximum white noise                  ....   0.010
   Pseudo random numbers                .... off
   Inactive MOs                         .... canonical
   Orbital update algorithm             .... Taylor
   Preconditioner                       .... Diag
   Full preconditioner red. dimension   ....   250
 SOSCF                 CNVSOSCF           .... on
   Start iteration     SOSCFMaxIt         ....   150
   Startup grad/error  SOSCFStart         ....  0.003300
   Hessian update      SOSCFHessUp        .... L-BFGS
   Autom. constraints  SOSCFAutoConstrain .... off
 Level Shifting         CNVShift        .... on
   Level shift para.    LevelShift      ....    0.2500
   Turn off err/grad.   ShiftErr        ....    0.0010
 Zerner damping         CNVZerner       .... off
 Static damping         CNVDamp         .... on
   Fraction old density DampFac         ....    0.7000
   Max. Damping (<1)    DampMax         ....    0.9800
   Min. Damping (>=0)   DampMin         ....    0.0000
   Turn off err/grad.   DampErr         ....    0.1000

SCF Procedure:
 Maximum # iterations   MaxIter         ....   125
 SCF integral mode      SCFMode         .... Direct
   Integral package                     .... SHARK and LIBINT hybrid scheme
 Reset frequency        DirectResetFreq ....    20
 Integral Threshold     Thresh          ....  2.500e-11 Eh
 Primitive CutOff       TCut            ....  2.500e-12 Eh

Convergence Tolerance:
 Convergence Check Mode ConvCheckMode   .... Total+1el-Energy
 Convergence forced     ConvForced      .... 0
 Energy Change          TolE            ....  1.000e-08 Eh
 1-El. energy change                    ....  1.000e-05 Eh
 Orbital Gradient       TolG            ....  1.000e-05
 Orbital Rotation angle TolX            ....  1.000e-05
 DIIS Error             TolErr          ....  5.000e-07

------------------------------
INITIAL GUESS: MODEL POTENTIAL
------------------------------
Loading Hartree-Fock densities                     ... done
Calculating cut-offs                               ... done
Initializing the effective Hamiltonian             ... done
Setting up the integral package (SHARK)            ... done
Starting the Coulomb interaction                   ... done (   0.4 sec)
Making the grid                                    ... done (   0.3 sec)
Mapping shells                                     ... done
Starting the XC term evaluation                    ... done (   0.5 sec)
  promolecular density results
     # of electrons  =     97.999552378
     EX              =   -100.082463705
     EC              =     -3.647631517
     EX+EC           =   -103.730095221
Transforming the Hamiltonian                       ... done (   0.0 sec)
Diagonalizing the Hamiltonian                      ... done (   0.0 sec)
Back transforming the eigenvectors                 ... done (   0.0 sec)
Now organizing SCF variables                       ... done
                      ------------------
                      INITIAL GUESS DONE (   1.3 sec)
                      ------------------
             **** ENERGY FILE WAS UPDATED (HFE_347pcf2_gauche2.en.tmp) ****
Finished Guess after   1.4 sec
Maximum memory used throughout the entire GUESS-calculation: 25.7 MB

-------------------------------------------------------------------------------------------
                                      ORCA LEAN-SCF
                              memory conserving SCF solver
-------------------------------------------------------------------------------------------

----------------------------------------D-I-I-S--------------------------------------------
Iteration    Energy (Eh)           Delta-E    RMSDP     MaxDP     DIISErr   Damp  Time(sec)
-------------------------------------------------------------------------------------------
               ***  Starting incremental Fock matrix formation  ***
    1    -928.0523429956988366     0.00e+00  1.29e-03  6.14e-02  2.25e-01  0.700  16.9
    2    -928.1609380719514775    -1.09e-01  7.18e-04  2.87e-02  8.97e-02  0.700   7.0
                               ***Turning on AO-DIIS***
    3    -928.1971376163496643    -3.62e-02  2.60e-04  1.19e-02  2.48e-02  0.700   7.3
    4    -928.2215433766207298    -2.44e-02  4.89e-04  1.66e-02  1.31e-02  0.000   6.8
                              *** Initializing SOSCF ***
---------------------------------------S-O-S-C-F--------------------------------------
Iteration    Energy (Eh)           Delta-E    RMSDP     MaxDP     MaxGrad    Time(sec)
--------------------------------------------------------------------------------------
    5    -928.2776404529140564    -5.61e-02  9.01e-05  3.33e-03  2.57e-03     7.1
               *** Restarting incremental Fock matrix formation ***
    6    -928.2777306221603340    -9.02e-05  6.46e-05  5.63e-03  1.97e-04    15.8
    7    -928.2777310613632835    -4.39e-07  1.67e-05  9.88e-04  2.10e-04    11.9
    8    -928.2777362459291908    -5.18e-06  1.15e-05  9.68e-04  3.91e-05    10.3
    9    -928.2777363167663225    -7.08e-08  1.68e-06  6.71e-05  2.74e-05    10.2
   10    -928.2777363678089841    -5.10e-08  2.12e-06  1.13e-04  1.06e-05     8.8
   11    -928.2777363837012672    -1.59e-08  1.10e-06  1.18e-04  5.63e-06     8.8
   12    -928.2777363812483600     2.45e-09  1.08e-06  8.07e-05  1.33e-06     7.0
                 **** Energy Check signals convergence ****

               *****************************************************
               *                     SUCCESS                       *
               *           SCF CONVERGED AFTER  12 CYCLES          *
               *****************************************************

Recomputing exchange energy using gridx3       ... done (   27.845 sec)
Old exchange energy                            :    -20.090382414 Eh
New exchange energy                            :    -20.090382177 Eh
Exchange energy change after final integration :      0.000000237 Eh
Total energy after final integration           :   -928.277736155 Eh
             **** ENERGY FILE WAS UPDATED (HFE_347pcf2_gauche2.en.tmp) ****

----------------
TOTAL SCF ENERGY
----------------

Total Energy       :       -928.27773615450383 Eh          -25259.72138 eV

Components:
Nuclear Repulsion  :        863.22194324825341 Eh           23489.46326 eV
Electronic Energy  :      -1791.49967964014877 Eh          -48749.18464 eV
One Electron Energy:      -3003.79895331191437 Eh          -81737.52498 eV
Two Electron Energy:       1212.29927367176560 Eh           32988.34033 eV

Virial components:
Potential Energy   :      -1854.26695498018762 Eh          -50457.16904 eV
Kinetic Energy     :        925.98921882568391 Eh           25197.44766 eV
Virial Ratio       :          2.00247142977725

DFT components:
N(Alpha)           :       48.999832132912 electrons
N(Beta)            :       48.999832132912 electrons
N(Total)           :       97.999664265825 electrons
E(X)               :      -80.052993435466 Eh       
E(C)               :       -4.264232484742 Eh       
E(XC)              :      -84.317225920208 Eh       

---------------
SCF CONVERGENCE
---------------

  Last Energy change         ...   -2.4529e-09  Tolerance :   1.0000e-08
  Last MAX-Density change    ...    8.0668e-05  Tolerance :   1.0000e-07
  Last RMS-Density change    ...    1.0844e-06  Tolerance :   5.0000e-09
  Last DIIS Error            ...    2.5735e-03  Tolerance :   5.0000e-07
  Last Orbital Gradient      ...    1.3309e-06  Tolerance :   1.0000e-05
  Last Orbital Rotation      ...    2.2488e-06  Tolerance :   1.0000e-05


----------------
ORBITAL ENERGIES
----------------

  NO   OCC          E(Eh)            E(eV) 
   0   2.0000     -24.742335      -673.2732 
   1   2.0000     -24.740582      -673.2255 
   2   2.0000     -24.738063      -673.1569 
   3   2.0000     -24.730215      -672.9434 
   4   2.0000     -24.728844      -672.9061 
   5   2.0000     -24.720141      -672.6692 
   6   2.0000     -24.717826      -672.6062 
   7   2.0000     -19.200133      -522.4622 
   8   2.0000     -10.439055      -284.0611 
   9   2.0000     -10.438031      -284.0333 
  10   2.0000     -10.384809      -282.5850 
  11   2.0000     -10.268057      -279.4080 
  12   2.0000      -1.327174       -36.1142 
  13   2.0000      -1.325834       -36.0778 
  14   2.0000      -1.305875       -35.5347 
  15   2.0000      -1.259171       -34.2638 
  16   2.0000      -1.246354       -33.9150 
  17   2.0000      -1.242648       -33.8142 
  18   2.0000      -1.236689       -33.6520 
  19   2.0000      -1.104989       -30.0683 
  20   2.0000      -0.832894       -22.6642 
  21   2.0000      -0.793649       -21.5963 
  22   2.0000      -0.707810       -19.2605 
  23   2.0000      -0.684958       -18.6387 
  24   2.0000      -0.639288       -17.3959 
  25   2.0000      -0.629252       -17.1228 
  26   2.0000      -0.626264       -17.0415 
  27   2.0000      -0.611078       -16.6283 
  28   2.0000      -0.606130       -16.4936 
  29   2.0000      -0.592001       -16.1092 
  30   2.0000      -0.581148       -15.8138 
  31   2.0000      -0.563195       -15.3253 
  32   2.0000      -0.514333       -13.9957 
  33   2.0000      -0.501289       -13.6408 
  34   2.0000      -0.486921       -13.2498 
  35   2.0000      -0.483116       -13.1463 
  36   2.0000      -0.481543       -13.1034 
  37   2.0000      -0.477701       -12.9989 
  38   2.0000      -0.473622       -12.8879 
  39   2.0000      -0.460423       -12.5287 
  40   2.0000      -0.452198       -12.3049 
  41   2.0000      -0.445588       -12.1251 
  42   2.0000      -0.442885       -12.0515 
  43   2.0000      -0.438306       -11.9269 
  44   2.0000      -0.433930       -11.8078 
  45   2.0000      -0.425007       -11.5650 
  46   2.0000      -0.410121       -11.1600 
  47   2.0000      -0.374992       -10.2041 
  48   2.0000      -0.336374        -9.1532 
  49   0.0000      -0.002407        -0.0655 
  50   0.0000       0.005064         0.1378 
  51   0.0000       0.018558         0.5050 
  52   0.0000       0.020926         0.5694 
  53   0.0000       0.036440         0.9916 
  54   0.0000       0.050085         1.3629 
  55   0.0000       0.054886         1.4935 
  56   0.0000       0.069398         1.8884 
  57   0.0000       0.074556         2.0288 
  58   0.0000       0.078541         2.1372 
  59   0.0000       0.087069         2.3693 
*Only the first 10 virtual orbitals were printed.

                    ********************************
                    * MULLIKEN POPULATION ANALYSIS *
                    ********************************

-----------------------
MULLIKEN ATOMIC CHARGES
-----------------------
   0 F :   -0.316309
   1 F :   -0.302856
   2 F :   -0.273006
   3 F :   -0.280343
   4 F :   -0.308494
   5 F :   -0.318188
   6 F :   -0.318452
   7 O :   -0.435303
   8 C :    0.769035
   9 C :   -0.184383
  10 C :    0.548602
  11 C :    0.930055
  12 H :    0.170760
  13 H :    0.159988
  14 H :    0.158895
Sum of atomic charges:   -0.0000000

--------------------------------
MULLIKEN REDUCED ORBITAL CHARGES
--------------------------------
  0 F s       :     4.014291  s :     4.014291
      pz      :     1.572856  p :     5.286631
      px      :     1.906742
      py      :     1.807033
      dz2     :     0.005424  d :     0.015387
      dxz     :     0.002335
      dyz     :     0.005610
      dx2y2   :     0.001105
      dxy     :     0.000913

  1 F s       :     4.018409  s :     4.018409
      pz      :     1.730714  p :     5.268926
      px      :     1.760086
      py      :     1.778126
      dz2     :     0.002259  d :     0.015521
      dxz     :     0.004220
      dyz     :     0.004022
      dx2y2   :     0.001984
      dxy     :     0.003036

  2 F s       :     3.976430  s :     3.976430
      pz      :     1.744868  p :     5.280730
      px      :     1.747999
      py      :     1.787863
      dz2     :     0.002449  d :     0.015846
      dxz     :     0.003864
      dyz     :     0.003994
      dx2y2   :     0.002579
      dxy     :     0.002959

  3 F s       :     3.991075  s :     3.991075
      pz      :     1.569510  p :     5.273558
      px      :     1.904748
      py      :     1.799300
      dz2     :     0.005284  d :     0.015709
      dxz     :     0.002797
      dyz     :     0.005566
      dx2y2   :     0.001134
      dxy     :     0.000929

  4 F s       :     4.008064  s :     4.008064
      pz      :     1.550006  p :     5.285357
      px      :     1.901751
      py      :     1.833600
      dz2     :     0.005889  d :     0.015073
      dxz     :     0.002793
      dyz     :     0.005029
      dx2y2   :     0.000653
      dxy     :     0.000708

  5 F s       :     4.019137  s :     4.019137
      pz      :     1.759301  p :     5.283938
      px      :     1.714775
      py      :     1.809863
      dz2     :     0.002084  d :     0.015113
      dxz     :     0.004401
      dyz     :     0.003034
      dx2y2   :     0.002142
      dxy     :     0.003453

  6 F s       :     4.012491  s :     4.012491
      pz      :     1.905332  p :     5.290871
      px      :     1.859090
      py      :     1.526449
      dz2     :     0.002306  d :     0.015090
      dxz     :     0.000482
      dyz     :     0.002534
      dx2y2   :     0.005331
      dxy     :     0.004437

  7 O s       :     3.873888  s :     3.873888
      pz      :     1.582220  p :     4.525049
      px      :     1.234873
      py      :     1.707956
      dz2     :     0.006280  d :     0.036366
      dxz     :     0.009960
      dyz     :     0.006495
      dx2y2   :     0.008298
      dxy     :     0.005333

  8 C s       :     2.923578  s :     2.923578
      pz      :     0.487974  p :     1.952962
      px      :     0.658142
      py      :     0.806846
      dz2     :     0.081906  d :     0.354425
      dxz     :     0.079427
      dyz     :     0.049975
      dx2y2   :     0.068625
      dxy     :     0.074492

  9 C s       :     3.227225  s :     3.227225
      pz      :     0.930315  p :     2.832482
      px      :     0.894452
      py      :     1.007715
      dz2     :     0.033827  d :     0.124676
      dxz     :     0.021765
      dyz     :     0.014653
      dx2y2   :     0.038675
      dxy     :     0.015757

 10 C s       :     2.945538  s :     2.945538
      pz      :     0.589279  p :     2.280208
      px      :     0.895253
      py      :     0.795677
      dz2     :     0.060861  d :     0.225652
      dxz     :     0.048411
      dyz     :     0.044079
      dx2y2   :     0.045233
      dxy     :     0.027067

 11 C s       :     2.764333  s :     2.764333
      pz      :     0.570655  p :     1.948301
      px      :     0.825164
      py      :     0.552481
      dz2     :     0.070376  d :     0.357311
      dxz     :     0.067394
      dyz     :     0.077948
      dx2y2   :     0.071550
      dxy     :     0.070043

 12 H s       :     0.802555  s :     0.802555
      pz      :     0.004223  p :     0.026685
      px      :     0.005231
      py      :     0.017231

 13 H s       :     0.814816  s :     0.814816
      pz      :     0.015419  p :     0.025196
      px      :     0.003747
      py      :     0.006030

 14 H s       :     0.818549  s :     0.818549
      pz      :     0.003167  p :     0.022556
      px      :     0.016354
      py      :     0.003035



                     *******************************
                     * LOEWDIN POPULATION ANALYSIS *
                     *******************************

----------------------
LOEWDIN ATOMIC CHARGES
----------------------
   0 F :    0.076801
   1 F :    0.099708
   2 F :    0.028052
   3 F :    0.061189
   4 F :    0.081414
   5 F :    0.076797
   6 F :    0.079271
   7 O :    0.096808
   8 C :   -0.371462
   9 C :   -0.109754
  10 C :   -0.186267
  11 C :   -0.388598
  12 H :    0.157831
  13 H :    0.145365
  14 H :    0.152845

-------------------------------
LOEWDIN REDUCED ORBITAL CHARGES
-------------------------------
  0 F s       :     3.615706  s :     3.615706
      pz      :     1.630786  p :     5.279552
      px      :     1.862068
      py      :     1.786698
      dz2     :     0.009916  d :     0.027940
      dxz     :     0.004056
      dyz     :     0.010939
      dx2y2   :     0.001784
      dxy     :     0.001245

  1 F s       :     3.618984  s :     3.618984
      pz      :     1.730020  p :     5.253929
      px      :     1.757528
      py      :     1.766381
      dz2     :     0.003319  d :     0.027379
      dxz     :     0.007648
      dyz     :     0.007559
      dx2y2   :     0.003454
      dxy     :     0.005399

  2 F s       :     3.625767  s :     3.625767
      pz      :     1.746780  p :     5.316904
      px      :     1.794994
      py      :     1.775130
      dz2     :     0.004038  d :     0.029277
      dxz     :     0.007423
      dyz     :     0.007350
      dx2y2   :     0.004814
      dxy     :     0.005653

  3 F s       :     3.626737  s :     3.626737
      pz      :     1.633956  p :     5.283316
      px      :     1.867401
      py      :     1.781959
      dz2     :     0.009511  d :     0.028758
      dxz     :     0.005455
      dyz     :     0.010397
      dx2y2   :     0.001823
      dxy     :     0.001572

  4 F s       :     3.619440  s :     3.619440
      pz      :     1.611285  p :     5.271635
      px      :     1.856935
      py      :     1.803414
      dz2     :     0.010962  d :     0.027512
      dxz     :     0.005206
      dyz     :     0.008978
      dx2y2   :     0.001139
      dxy     :     0.001226

  5 F s       :     3.623017  s :     3.623017
      pz      :     1.753471  p :     5.272880
      px      :     1.730627
      py      :     1.788781
      dz2     :     0.003642  d :     0.027306
      dxz     :     0.008359
      dyz     :     0.005531
      dx2y2   :     0.003538
      dxy     :     0.006236

  6 F s       :     3.619578  s :     3.619578
      pz      :     1.854288  p :     5.273542
      px      :     1.828206
      py      :     1.591048
      dz2     :     0.004247  d :     0.027609
      dxz     :     0.000727
      dyz     :     0.003917
      dx2y2   :     0.009894
      dxy     :     0.008824

  7 O s       :     3.286425  s :     3.286425
      pz      :     1.585685  p :     4.525340
      px      :     1.290731
      py      :     1.648924
      dz2     :     0.014773  d :     0.091428
      dxz     :     0.024016
      dyz     :     0.011969
      dx2y2   :     0.024923
      dxy     :     0.015746

  8 C s       :     2.655132  s :     2.655132
      pz      :     0.770742  p :     2.591450
      px      :     0.866205
      py      :     0.954503
      dz2     :     0.246318  d :     1.124880
      dxz     :     0.243736
      dyz     :     0.215587
      dx2y2   :     0.214138
      dxy     :     0.205102

  9 C s       :     2.703484  s :     2.703484
      pz      :     0.962935  p :     2.904492
      px      :     0.938565
      py      :     1.002992
      dz2     :     0.123284  d :     0.501777
      dxz     :     0.099079
      dyz     :     0.074454
      dx2y2   :     0.132663
      dxy     :     0.072298

 10 C s       :     2.683498  s :     2.683498
      pz      :     0.752348  p :     2.646133
      px      :     0.973488
      py      :     0.920297
      dz2     :     0.211342  d :     0.856635
      dxz     :     0.171733
      dyz     :     0.197180
      dx2y2   :     0.167818
      dxy     :     0.108562

 11 C s       :     2.655664  s :     2.655664
      pz      :     0.801178  p :     2.555098
      px      :     0.974982
      py      :     0.778938
      dz2     :     0.247193  d :     1.177836
      dxz     :     0.217602
      dyz     :     0.254605
      dx2y2   :     0.241015
      dxy     :     0.217420

 12 H s       :     0.765546  s :     0.765546
      pz      :     0.012055  p :     0.076623
      px      :     0.016215
      py      :     0.048353

 13 H s       :     0.786605  s :     0.786605
      pz      :     0.039414  p :     0.068029
      px      :     0.011063
      py      :     0.017553

 14 H s       :     0.784899  s :     0.784899
      pz      :     0.009040  p :     0.062257
      px      :     0.044001
      py      :     0.009216



                      *****************************
                      * MAYER POPULATION ANALYSIS *
                      *****************************

  NA   - Mulliken gross atomic population
  ZA   - Total nuclear charge
  QA   - Mulliken gross atomic charge
  VA   - Mayer's total valence
  BVA  - Mayer's bonded valence
  FA   - Mayer's free valence

  ATOM       NA         ZA         QA         VA         BVA        FA
  0 F      9.3163     9.0000    -0.3163     1.0701     1.0701     0.0000
  1 F      9.3029     9.0000    -0.3029     1.0418     1.0418     0.0000
  2 F      9.2730     9.0000    -0.2730     1.0341     1.0341    -0.0000
  3 F      9.2803     9.0000    -0.2803     1.0824     1.0824    -0.0000
  4 F      9.3085     9.0000    -0.3085     1.0989     1.0989    -0.0000
  5 F      9.3182     9.0000    -0.3182     1.0330     1.0330    -0.0000
  6 F      9.3185     9.0000    -0.3185     1.0793     1.0793    -0.0000
  7 O      8.4353     8.0000    -0.4353     2.1298     2.1298     0.0000
  8 C      5.2310     6.0000     0.7690     4.0064     4.0064    -0.0000
  9 C      6.1844     6.0000    -0.1844     3.9152     3.9152    -0.0000
 10 C      5.4514     6.0000     0.5486     3.6892     3.6892    -0.0000
 11 C      5.0699     6.0000     0.9301     3.8991     3.8991     0.0000
 12 H      0.8292     1.0000     0.1708     0.9459     0.9459    -0.0000
 13 H      0.8400     1.0000     0.1600     0.9407     0.9407    -0.0000
 14 H      0.8411     1.0000     0.1589     0.9321     0.9321    -0.0000

  Mayer bond orders larger than 0.100000
B(  0-F ,  8-C ) :   1.0243 B(  0-F , 10-C ) :  -0.1246 B(  1-F ,  7-O ) :   0.1130 
B(  1-F ,  8-C ) :   0.9032 B(  2-F ,  3-F ) :   0.1052 B(  2-F , 10-C ) :   0.9371 
B(  3-F , 10-C ) :   0.9737 B(  4-F , 11-C ) :   0.9691 B(  5-F , 11-C ) :   0.9276 
B(  6-F , 11-C ) :   0.9424 B(  7-O ,  8-C ) :   1.0923 B(  7-O ,  9-C ) :   0.9707 
B(  8-C , 10-C ) :   1.0942 B(  9-C , 11-C ) :   1.1027 B(  9-C , 12-H ) :   0.9632 
B(  9-C , 13-H ) :   0.9625 B( 10-C , 14-H ) :   0.9836 

-------
TIMINGS
-------

Total SCF time: 0 days 0 hours 2 min 33 sec 

Total time                  ....     153.013 sec
Sum of individual times     ....     145.936 sec  ( 95.4%)

SCF preparation             ....       0.176 sec  (  0.1%)
Fock matrix formation       ....     145.134 sec  ( 94.9%)
  Startup                   ....       0.014 sec  (  0.0% of F)
  Split-RI-J                ....      10.963 sec  (  7.6% of F)
  Chain of spheres X        ....     122.730 sec  ( 84.6% of F)
  XC integration            ....      18.157 sec  ( 12.5% of F)
    XC Preparation          ....       0.000 sec  (  0.0% of XC)
    Basis function eval.    ....       4.720 sec  ( 26.0% of XC)
    Density eval.           ....       4.751 sec  ( 26.2% of XC)
    XC-Functional eval.     ....       0.502 sec  (  2.8% of XC)
    XC-Potential eval.      ....       7.520 sec  ( 41.4% of XC)
Diagonalization             ....       0.000 sec  (  0.0%)
Density matrix formation    ....       0.068 sec  (  0.0%)
Total Energy calculation    ....       0.016 sec  (  0.0%)
Population analysis         ....       0.021 sec  (  0.0%)
Orbital Transformation      ....       0.068 sec  (  0.0%)
Orbital Orthonormalization  ....       0.000 sec  (  0.0%)
DIIS solution               ....       0.251 sec  (  0.2%)
SOSCF solution              ....       0.202 sec  (  0.1%)
Finished LeanSCF after 153.0 sec

Maximum memory used throughout the entire LEANSCF-calculation: 43.4 MB

------------------------------------------------------------------------------
                         ORCA PROPERTY INTEGRAL CALCULATIONS
------------------------------------------------------------------------------

GBWName                                   ... HFE_347pcf2_gauche2.gbw
Number of atoms                           ...     15
Number of basis functions                 ...    342
Max core memory                           ...   4096 MB

Dipole integrals                          ... YES
Quadrupole integrals                      ...  NO
Linear momentum integrals                 ...  NO
Angular momentum integrals                ...  NO
Higher moments length integrals           ...  NO
Higher moments velocity integrals         ...  NO
Kinetic energy integrals                  ...  NO
GIAO right hand sides                     ...  NO
GIAO dipole derivative integrals          ...  NO
SOC integrals                             ...  NO
EPR diamagnetic integrals (GIAO)          ...  NO
EPR gauge integrals                       ...  NO
Field gradient integrals                  ...  NO (   0 nuclei)
Spin-dipole/Fermi contact integrals       ...  NO (   0 nuclei)
Contact density integrals                 ...  NO (   0 nuclei)
Nucleus-orbit integrals                   ...  NO (   0 nuclei)
Geometric perturbations                   ...  NO (  15 nuclei)

Choice of electric origin   ... Center of mass
Position of electric origin ... ( -0.0293,  0.0155, -0.0075) 
Choice of magnetic origin   ... GIAO
Position of magnetic origin ... (  0.0000,  0.0000,  0.0000) 

Calculating integrals                     ... Electric Dipole (Length)     done (  0.0 sec)

Property integrals calculated in   0.0 sec

Maximum memory used throughout the entire PROPINT-calculation: 26.5 MB

-------------------------   --------------------
FINAL SINGLE POINT ENERGY      -928.277736154504
-------------------------   --------------------

------------------------------------------------------------------------------
                         ORCA SCF GRADIENT CALCULATION
------------------------------------------------------------------------------

Nuc. rep. gradient        (SHARK) ... done (  0.0 sec)
HCore & Overlap gradient  (SHARK) ... done (  0.5 sec)
Split-RIJ-J gradient      (SHARK) ... done (  3.7 sec)
COSX-gradient                     ... done ( 76.9 sec)
XC gradient                       ... done (  7.8 sec)

------------------
CARTESIAN GRADIENT
------------------

   1   F   :   -0.005873311   -0.000039358   -0.001685667
   2   F   :    0.013309852   -0.008599278   -0.007126582
   3   F   :   -0.017788245   -0.007960489   -0.012655031
   4   F   :   -0.001724578    0.002941346    0.001505487
   5   F   :    0.001876520    0.001512390   -0.004313327
   6   F   :   -0.005894421    0.001940573    0.000835790
   7   F   :    0.004665281   -0.002747754    0.000637122
   8   O   :   -0.032206429    0.006930086   -0.002364386
   9   C   :    0.037944016    0.013851291    0.013300362
  10   C   :    0.019601941   -0.011135026   -0.002378371
  11   C   :   -0.020303967   -0.017275332    0.004305352
  12   C   :    0.003404612    0.017035170    0.009734785
  13   H   :    0.000026896    0.004897799   -0.002313287
  14   H   :    0.002833504   -0.001921775    0.002637953
  15   H   :    0.000128329    0.000570354   -0.000120199

Difference to translation invariance:
           :   -0.0000000000   -0.0000000000   -0.0000000000

Difference to rotation invariance:
           :   -0.0000259312    0.0002394404    0.0000739303

Norm of the Cartesian gradient     ...    0.0746580007
RMS gradient                       ...    0.0111293576
MAX gradient                       ...    0.0379440163

-------
TIMINGS
-------

Total SCF gradient time     ....       88.999 sec

Densities                   ....       0.003 sec  (  0.0%)
One electron gradient       ....       0.515 sec  (  0.6%)
RI-J Coulomb gradient       ....       3.738 sec  (  4.2%)
COSX gradient               ....      76.912 sec  ( 86.4%)
XC gradient                 ....       7.830 sec  (  8.8%)

Maximum memory used throughout the entire SCFGRAD-calculation: 50.9 MB
------------------------------------------------------------------------------
                         ORCA GEOMETRY RELAXATION STEP
------------------------------------------------------------------------------

Reading the OPT-File                    .... done
Getting information on internals        .... done
Copying old internal coords+grads       .... done
Making the new internal coordinates     .... (2022 redundants) done
Validating the new internal coordinates .... (2022 redundants) done
Calculating the B-matrix                .... done
Calculating the G,G- and P matrices     .... done
Transforming gradient to internals      .... done
Projecting the internal gradient        .... done
Number of atoms                         ....  15
Number of internal coordinates          ....  57
Current Energy                          ....  -928.277736155 Eh
Current gradient norm                   ....     0.074658001 Eh/bohr
Maximum allowed component of the step   ....  0.300
Current trust radius                    ....  0.300
Evaluating the initial hessian          ....  (Almloef) done
Projecting the Hessian                  .... done
Forming the augmented Hessian           .... done
Diagonalizing the augmented Hessian     .... done
Last element of RFO vector              ....  0.898691205
Lowest eigenvalues of augmented Hessian:
 -0.063737859  0.013131389  0.014650727  0.019704164  0.023932454
Length of the computed step             ....  0.488022956
Warning: the length of the step is outside the trust region - taking restricted step instead
The input lambda is                     ....     0.012131
   iter:   5  x=    0.003091  g= 1986.492321 f(x)=     7.534329
   iter:  10  x=   -0.106305  g=    3.459351 f(x)=     0.161937
   iter:  15  x=   -0.202025  g=    0.415423 f(x)=     0.000000
The output lambda is                    ....    -0.202025 (17 iterations)
The final length of the internal step   ....  0.300000000
Converting the step to Cartesian space:
 Initial RMS(Int)=    0.0397359707
Transforming coordinates:
 Iter   0:  RMS(Cart)=    0.2774305894 RMS(Int)=    1.1705802368
 Iter   5:  RMS(Cart)=    0.0000654690 RMS(Int)=    0.0000534042
 Iter  10:  RMS(Cart)=    0.0000000665 RMS(Int)=    0.0000000526
done
Storing new coordinates                 .... done

                                .--------------------.
          ----------------------|Geometry convergence|-------------------------
          Item                value                   Tolerance       Converged
          ---------------------------------------------------------------------
          RMS gradient        0.0204041663            0.0001000000      NO
          MAX gradient        0.0896223823            0.0003000000      NO
          RMS step            0.0397359707            0.0020000000      NO
          MAX step            0.1506954633            0.0040000000      NO
          -------------------------------------------------------------------------
          ........................................................
          Max(Bonds)      0.0299      Max(Angles)    8.63
          Max(Dihed)        4.93      Max(Improp)    0.00
          ---------------------------------------------------------------------

The optimization has not yet converged - more geometry cycles are needed


    ---------------------------------------------------------------------------
                         Redundant Internal Coordinates
                            (Angstroem and degrees)

        Definition                    Value    dE/dq     Step     New-Value
    ----------------------------------------------------------------------------
     1. B(C   8,F   1)                1.3540  0.016481 -0.0110    1.3431   
     2. B(C   8,O   7)                1.4217  0.004742 -0.0036    1.4182   
     3. B(C   8,F   0)                1.3550 -0.001834  0.0012    1.3562   
     4. B(C   9,O   7)                1.4207 -0.008243  0.0062    1.4269   
     5. B(C  10,F   3)                1.3555  0.000173 -0.0001    1.3554   
     6. B(C  10,C   8)                1.5052 -0.034491  0.0299    1.5351   
     7. B(C  10,F   2)                1.3559 -0.002234  0.0015    1.3574   
     8. B(C  11,F   6)                1.3498  0.001057 -0.0007    1.3491   
     9. B(C  11,F   5)                1.3498  0.005159 -0.0034    1.3464   
    10. B(C  11,C   9)                1.5066 -0.006845  0.0059    1.5126   
    11. B(C  11,F   4)                1.3510  0.004434 -0.0029    1.3481   
    12. B(H  12,C   9)                1.0875  0.004814 -0.0045    1.0830   
    13. B(H  13,C   9)                1.0942  0.003324 -0.0032    1.0910   
    14. B(H  14,C  10)                1.0929  0.000108 -0.0001    1.0928   
    15. A(C   8,O   7,C   9)          112.56 -0.089622    8.58    121.14   
    16. A(F   1,C   8,C  10)          110.06  0.026262   -3.07    106.99   
    17. A(F   1,C   8,O   7)          109.61  0.039538   -4.35    105.26   
    18. A(O   7,C   8,C  10)          110.34 -0.084015    8.63    118.98   
    19. A(F   0,C   8,C  10)          109.68  0.016328   -1.01    108.67   
    20. A(F   0,C   8,F   1)          107.97 -0.005905   -0.43    107.54   
    21. A(F   0,C   8,O   7)          109.13  0.009626    0.03    109.16   
    22. A(H  12,C   9,H  13)          111.29  0.001982   -0.08    111.21   
    23. A(C  11,C   9,H  13)          110.80  0.003789   -0.69    110.11   
    24. A(O   7,C   9,H  13)          111.36 -0.005737    0.42    111.78   
    25. A(C  11,C   9,H  12)          101.41 -0.010114    1.24    102.65   
    26. A(O   7,C   9,H  12)          112.47 -0.004151    0.63    113.09   
    27. A(O   7,C   9,C  11)          109.08  0.014653   -1.54    107.54   
    28. A(F   3,C  10,H  14)          109.09  0.006925   -0.96    108.13   
    29. A(F   2,C  10,H  14)          109.06  0.007260   -0.99    108.07   
    30. A(F   2,C  10,F   3)          106.81  0.000305    0.58    107.40   
    31. A(F   3,C  10,C   8)          109.51  0.010026   -0.77    108.74   
    32. A(C   8,C  10,H  14)          112.52  0.008659   -1.19    111.34   
    33. A(F   2,C  10,C   8)          109.68 -0.033419    3.39    113.07   
    34. A(F   4,C  11,C   9)          110.61 -0.005092    0.46    111.07   
    35. A(F   5,C  11,F   6)          108.10  0.004537   -0.37    107.73   
    36. A(F   4,C  11,F   6)          107.71  0.001143   -0.06    107.65   
    37. A(F   4,C  11,F   5)          107.74 -0.001026   -0.01    107.72   
    38. A(F   6,C  11,C   9)          111.27 -0.010306    1.04    112.31   
    39. A(F   5,C  11,C   9)          111.27  0.010924   -1.08    110.19   
    40. D(F   1,C   8,O   7,C   9)    178.64  0.014185   -2.83    175.81   
    41. D(F   0,C   8,O   7,C   9)     60.59 -0.007378    0.20     60.79   
    42. D(C  10,C   8,O   7,C   9)    -60.00  0.018610   -3.94    -63.94   
    43. D(H  13,C   9,O   7,C   8)    -56.74 -0.001027    0.87    -55.87   
    44. D(H  12,C   9,O   7,C   8)     68.97 -0.006151    1.58     70.55   
    45. D(C  11,C   9,O   7,C   8)   -179.34 -0.012059    2.52   -176.82   
    46. D(F   2,C  10,C   8,F   0)    -61.72  0.003868    0.09    -61.62   
    47. D(F   3,C  10,C   8,O   7)    -58.38 -0.013593    2.70    -55.67   
    48. D(F   3,C  10,C   8,F   1)     62.72 -0.001671    0.88     63.59   
    49. D(F   3,C  10,C   8,F   0)   -178.63  0.017022   -2.13   -180.76   
    50. D(F   2,C  10,C   8,O   7)     58.54 -0.026746    4.93     63.47   
    51. D(F   2,C  10,C   8,F   1)    179.63 -0.014824    3.10    182.73   
    52. D(F   4,C  11,C   9,H  13)    177.50 -0.000986    0.20    177.71   
    53. D(F   4,C  11,C   9,H  12)     59.28  0.000542   -0.08     59.20   
    54. D(F   4,C  11,C   9,O   7)    -59.56  0.004220   -0.77    -60.33   
    55. D(F   5,C  11,C   9,H  13)     57.79 -0.003478    0.62     58.41   
    56. D(F   5,C  11,C   9,H  12)    -60.43 -0.001950    0.34    -60.09   
    57. D(F   5,C  11,C   9,O   7)   -179.27  0.001728   -0.35   -179.62   
    ----------------------------------------------------------------------------

Geometry step timings:
Preparation and reading OPT file:      0.000 s ( 0.562 %)
Internal coordinates            :      0.001 s ( 4.006 %)
B/P matrices and projection     :      0.002 s (13.943 %)
Hessian update/contruction      :      0.001 s ( 8.520 %)
Making the step                 :      0.006 s (46.815 %)
Converting the step to Cartesian:      0.000 s ( 2.881 %)
Storing new data                :      0.000 s ( 2.997 %)
Checking convergence            :      0.000 s ( 0.724 %)
Final printing                  :      0.003 s (19.552 %)
Total time                      :      0.013 s

Time for energy+gradient        :    247.044 s
Time for complete geometry iter :    247.193 s

         *************************************************************
         *                GEOMETRY OPTIMIZATION CYCLE   2            *
         *************************************************************
---------------------------------
CARTESIAN COORDINATES (ANGSTROEM)
---------------------------------
  F      1.609133   -1.194038    1.216476
  F      2.055317   -1.250198   -0.912655
  F      1.770641    1.614349    1.132579
  F      2.108128    1.470805   -1.022484
  F     -2.301176    0.473828   -1.292656
  F     -3.185620    0.497272    0.695388
  F     -2.544401   -1.386295   -0.187605
  O      0.088830   -0.489173   -0.297661
  C      1.463853   -0.521280    0.047927
  C     -0.871760    0.133032    0.554445
  C      2.235482    0.801899    0.149480
  C     -2.235410   -0.078844   -0.064800
  H     -0.785534    1.212385    0.574970
  H     -0.848633   -0.284048    1.562359
  H      3.299550    0.628708    0.328037

----------------------------
CARTESIAN COORDINATES (A.U.)
----------------------------
  NO LB      ZA    FRAG     MASS         X           Y           Z
   0 F     9.0000    0    18.998    3.040820   -2.256405    2.298807
   1 F     9.0000    0    18.998    3.883985   -2.362532   -1.724668
   2 F     9.0000    0    18.998    3.346027    3.050678    2.140264
   3 F     9.0000    0    18.998    3.983784    2.779419   -1.932214
   4 F     9.0000    0    18.998   -4.348593    0.895406   -2.442766
   5 F     9.0000    0    18.998   -6.019950    0.939707    1.314093
   6 F     9.0000    0    18.998   -4.808221   -2.619719   -0.354522
   7 O     8.0000    0    15.999    0.167865   -0.924404   -0.562499
   8 C     6.0000    0    12.011    2.766282   -0.985077    0.090569
   9 C     6.0000    0    12.011   -1.647388    0.251393    1.047749
  10 C     6.0000    0    12.011    4.224449    1.515370    0.282477
  11 C     6.0000    0    12.011   -4.224313   -0.148994   -0.122453
  12 H     1.0000    0     1.008   -1.484444    2.291075    1.086536
  13 H     1.0000    0     1.008   -1.603684   -0.536774    2.952430
  14 H     1.0000    0     1.008    6.235247    1.188086    0.619900

--------------------------------
INTERNAL COORDINATES (ANGSTROEM)
--------------------------------
 F      0   0   0     0.000000000000     0.00000000     0.00000000
 F      1   0   0     2.176105251843     0.00000000     0.00000000
 F      1   2   0     2.814278380857    89.13015516     0.00000000
 F      3   1   2     2.186046110010    88.43689815     2.81175706
 F      4   3   1     4.528677255998    85.58130528    73.93000570
 F      5   4   3     2.176031027324   109.80734653     0.46406606
 F      6   5   4     2.176846938172    60.02422768   263.15076686
 O      2   1   3     2.196461841854    62.19522108   289.35397326
 C      2   1   3     1.343081325811    36.47951835   328.56101582
 C      8   2   1     1.426869997219   157.07585059    28.08763312
 C      4   3   1     1.355416375358    36.34276098   334.53208488
 C      6   5   4     1.346363385843    36.16601581   300.96996219
 H     10   8   2     1.082986546426   113.09876295    76.77058360
 H     10   8   2     1.091045889644   111.75983344   310.34687479
 H     11   4   3     1.092757666770   108.11906924   243.63164119

---------------------------
INTERNAL COORDINATES (A.U.)
---------------------------
 F      0   0   0     0.000000000000     0.00000000     0.00000000
 F      1   0   0     4.112242964571     0.00000000     0.00000000
 F      1   2   0     5.318215404434    89.13015516     0.00000000
 F      3   1   2     4.131028464043    88.43689815     2.81175706
 F      4   3   1     8.557959762754    85.58130528    73.93000570
 F      5   4   3     4.112102700558   109.80734653     0.46406606
 F      6   5   4     4.113644548610    60.02422768   263.15076686
[...]
freq.     291.59  E(vib)   ...       0.31 
freq.     320.04  E(vib)   ...       0.28 
freq.     353.63  E(vib)   ...       0.26 
freq.     358.75  E(vib)   ...       0.26 
freq.     433.50  E(vib)   ...       0.21 
freq.     506.52  E(vib)   ...       0.17 
freq.     524.65  E(vib)   ...       0.16 
freq.     536.71  E(vib)   ...       0.15 
freq.     569.08  E(vib)   ...       0.14 
freq.     601.33  E(vib)   ...       0.12 
freq.     655.19  E(vib)   ...       0.10 
freq.     697.83  E(vib)   ...       0.09 
freq.     838.63  E(vib)   ...       0.06 
freq.     867.65  E(vib)   ...       0.05 
freq.     965.28  E(vib)   ...       0.04 
freq.    1074.50  E(vib)   ...       0.02 
freq.    1084.64  E(vib)   ...       0.02 
freq.    1105.97  E(vib)   ...       0.02 
freq.    1123.39  E(vib)   ...       0.02 
freq.    1147.48  E(vib)   ...       0.02 
freq.    1175.19  E(vib)   ...       0.02 
freq.    1191.04  E(vib)   ...       0.02 
freq.    1260.47  E(vib)   ...       0.01 
freq.    1301.24  E(vib)   ...       0.01 
freq.    1319.85  E(vib)   ...       0.01 
freq.    1355.23  E(vib)   ...       0.01 
freq.    1404.57  E(vib)   ...       0.01 
freq.    1443.34  E(vib)   ...       0.01 
freq.    1492.33  E(vib)   ...       0.01 
freq.    3074.00  E(vib)   ...       0.00 
freq.    3101.26  E(vib)   ...       0.00 
freq.    3135.83  E(vib)   ...       0.00 

------------
INNER ENERGY
------------

The inner energy is: U= E(el) + E(ZPE) + E(vib) + E(rot) + E(trans)
    E(el)   - is the total energy from the electronic structure calculation
              = E(kin-el) + E(nuc-el) + E(el-el) + E(nuc-nuc)
    E(ZPE)  - the the zero temperature vibrational energy from the frequency calculation
    E(vib)  - the the finite temperature correction to E(ZPE) due to population
              of excited vibrational states
    E(rot)  - is the rotational thermal energy
    E(trans)- is the translational thermal energy

Summary of contributions to the inner energy U:
Electronic energy                ...   -928.29529157 Eh
Zero point energy                ...      0.08222414 Eh      51.60 kcal/mol
Thermal vibrational correction   ...      0.00964205 Eh       6.05 kcal/mol
Thermal rotational correction    ...      0.00152006 Eh       0.95 kcal/mol
Thermal translational correction ...      0.00152006 Eh       0.95 kcal/mol
-----------------------------------------------------------------------
Total thermal energy                   -928.20038525 Eh


Summary of corrections to the electronic energy:
(perhaps to be used in another calculation)
Total thermal correction                  0.01268218 Eh       7.96 kcal/mol
Non-thermal (ZPE) correction              0.08222414 Eh      51.60 kcal/mol
-----------------------------------------------------------------------
Total correction                          0.09490632 Eh      59.55 kcal/mol


--------
ENTHALPY
--------

The enthalpy is H = U + kB*T
                kB is Boltzmann's constant
Total thermal energy              ...   -928.20038525 Eh 
Thermal Enthalpy correction       ...      0.00101341 Eh       0.64 kcal/mol
-----------------------------------------------------------------------
Total Enthalpy                    ...   -928.19937185 Eh


Note: Only C1 symmetry has been detected, increase convergence thresholds 
      if your molecule has a higher symmetry. Symmetry factor of 1.0 is   
      used for the rotational entropy correction. 
 

Note: Rotational entropy computed according to Herzberg 
Infrared and Raman Spectra, Chapter V,1, Van Nostrand Reinhold, 1945 
Point Group:  C1, Symmetry Number:   1  
Rotational constants in cm-1:     0.050827     0.017178     0.016202 

Vibrational entropy computed according to the QRRHO of S. Grimme
Chem.Eur.J. 2012 18 9955 using a reference frequency of 100.0 cm-1


-------
ENTROPY
-------

The entropy contributions are T*S = T*(S(el)+S(vib)+S(rot)+S(trans))
     S(el)   - electronic entropy
     S(vib)  - vibrational entropy
     S(rot)  - rotational entropy
     S(trans)- translational entropy
The entropies will be listed as multiplied by the temperature to get
units of energy

Electronic entropy                ...      0.00000000 Eh      0.00 kcal/mol
Vibrational entropy               ...      0.01741259 Eh     10.93 kcal/mol
Rotational entropy                ...      0.01597305 Eh     10.02 kcal/mol
Translational entropy             ...      0.02148743 Eh     13.48 kcal/mol
-----------------------------------------------------------------------
Final entropy term                ...      0.05487307 Eh     34.43 kcal/mol

In case the symmetry of your molecule has not been determined correctly
or in case you have a reason to use a different symmetry number we print 
out the resulting rotational entropy values for sn=1,12:

 non-linear molecules -----------------------------------
|  sn= 1 | S(rot)=       0.01597305 Eh     10.02 kcal/mol|
|  sn= 2 | S(rot)=       0.01527063 Eh      9.58 kcal/mol|
|  sn= 3 | S(rot)=       0.01485974 Eh      9.32 kcal/mol|
|  sn= 4 | S(rot)=       0.01456821 Eh      9.14 kcal/mol|
|  sn= 5 | S(rot)=       0.01434208 Eh      9.00 kcal/mol|
|  sn= 6 | S(rot)=       0.01415732 Eh      8.88 kcal/mol|
|  sn= 7 | S(rot)=       0.01400111 Eh      8.79 kcal/mol|
|  sn= 8 | S(rot)=       0.01386579 Eh      8.70 kcal/mol|
|  sn= 9 | S(rot)=       0.01374643 Eh      8.63 kcal/mol|
|  sn=10 | S(rot)=       0.01363966 Eh      8.56 kcal/mol|
|  sn=11 | S(rot)=       0.01354308 Eh      8.50 kcal/mol|
|  sn=12 | S(rot)=       0.01345490 Eh      8.44 kcal/mol|
 linear molecules ---------------------------------------
|  Dinfh | S(rot)=       0.00996556 Eh      6.25 kcal/mol|
|  Cinfv | S(rot)=       0.01066798 Eh      6.69 kcal/mol|
 --------------------------------------------------------


-------------------
GIBBS FREE ENERGY
-------------------

The Gibbs free energy is G = H - T*S

Total enthalpy                    ...   -928.19937185 Eh 
Total entropy correction          ...     -0.05487307 Eh    -34.43 kcal/mol
-----------------------------------------------------------------------
Final Gibbs free energy         ...   -928.25424492 Eh

For completeness - the Gibbs free energy minus the electronic energy
G-E(el)                           ...      0.04104665 Eh     25.76 kcal/mol


The first frequency considered to be a vibration is 6
The total number of vibrations considered is 39


--------------------------
THERMOCHEMISTRY AT 340.00K
--------------------------

Temperature         ...   340.00 K
Pressure            ...     1.00 atm
Total Mass          ...   200.05 AMU
Quasi RRHO          ...     True
Cut-Off Frequency   ...     1.00 cm^-1

Throughout the following assumptions are being made:
  (1) The electronic state is orbitally nondegenerate
  (2) There are no thermally accessible electronically excited states
  (3) Hindered rotations indicated by low frequency modes are not
      treated as such but are treated as vibrations and this may
      cause some error
  (4) All equations used are the standard statistical mechanics
      equations for an ideal gas
  (5) All vibrations are strictly harmonic

freq.      23.75  E(vib)   ...       0.64 
freq.      35.20  E(vib)   ...       0.63 
freq.      78.77  E(vib)   ...       0.57 
freq.      88.90  E(vib)   ...       0.56 
freq.     148.11  E(vib)   ...       0.49 
freq.     191.37  E(vib)   ...       0.44 
freq.     215.42  E(vib)   ...       0.41 
freq.     291.59  E(vib)   ...       0.34 
freq.     320.04  E(vib)   ...       0.32 
freq.     353.63  E(vib)   ...       0.29 
freq.     358.75  E(vib)   ...       0.29 
freq.     433.50  E(vib)   ...       0.24 
freq.     506.52  E(vib)   ...       0.19 
freq.     524.65  E(vib)   ...       0.18 
freq.     536.71  E(vib)   ...       0.18 
freq.     569.08  E(vib)   ...       0.16 
freq.     601.33  E(vib)   ...       0.15 
freq.     655.19  E(vib)   ...       0.12 
freq.     697.83  E(vib)   ...       0.11 
freq.     838.63  E(vib)   ...       0.07 
freq.     867.65  E(vib)   ...       0.06 
freq.     965.28  E(vib)   ...       0.05 
freq.    1074.50  E(vib)   ...       0.03 
freq.    1084.64  E(vib)   ...       0.03 
freq.    1105.97  E(vib)   ...       0.03 
freq.    1123.39  E(vib)   ...       0.03 
freq.    1147.48  E(vib)   ...       0.03 
freq.    1175.19  E(vib)   ...       0.02 
freq.    1191.04  E(vib)   ...       0.02 
freq.    1260.47  E(vib)   ...       0.02 
freq.    1301.24  E(vib)   ...       0.02 
freq.    1319.85  E(vib)   ...       0.01 
freq.    1355.23  E(vib)   ...       0.01 
freq.    1404.57  E(vib)   ...       0.01 
freq.    1443.34  E(vib)   ...       0.01 
freq.    1492.33  E(vib)   ...       0.01 
freq.    3074.00  E(vib)   ...       0.00 
freq.    3101.26  E(vib)   ...       0.00 
freq.    3135.83  E(vib)   ...       0.00 

------------
INNER ENERGY
------------

The inner energy is: U= E(el) + E(ZPE) + E(vib) + E(rot) + E(trans)
    E(el)   - is the total energy from the electronic structure calculation
              = E(kin-el) + E(nuc-el) + E(el-el) + E(nuc-nuc)
    E(ZPE)  - the the zero temperature vibrational energy from the frequency calculation
    E(vib)  - the the finite temperature correction to E(ZPE) due to population
              of excited vibrational states
    E(rot)  - is the rotational thermal energy
    E(trans)- is the translational thermal energy

Summary of contributions to the inner energy U:
Electronic energy                ...   -928.29529157 Eh
Zero point energy                ...      0.08222414 Eh      51.60 kcal/mol
Thermal vibrational correction   ...      0.01078310 Eh       6.77 kcal/mol
Thermal rotational correction    ...      0.00161507 Eh       1.01 kcal/mol
Thermal translational correction ...      0.00161507 Eh       1.01 kcal/mol
-----------------------------------------------------------------------
Total thermal energy                   -928.19905420 Eh


Summary of corrections to the electronic energy:
(perhaps to be used in another calculation)
Total thermal correction                  0.01401324 Eh       8.79 kcal/mol
Non-thermal (ZPE) correction              0.08222414 Eh      51.60 kcal/mol
-----------------------------------------------------------------------
Total correction                          0.09623737 Eh      60.39 kcal/mol


--------
ENTHALPY
--------

The enthalpy is H = U + kB*T
                kB is Boltzmann's constant
Total thermal energy              ...   -928.19905420 Eh 
Thermal Enthalpy correction       ...      0.00107674 Eh       0.68 kcal/mol
-----------------------------------------------------------------------
Total Enthalpy                    ...   -928.19797745 Eh


Note: Only C1 symmetry has been detected, increase convergence thresholds 
      if your molecule has a higher symmetry. Symmetry factor of 1.0 is   
      used for the rotational entropy correction. 
 

Note: Rotational entropy computed according to Herzberg 
Infrared and Raman Spectra, Chapter V,1, Van Nostrand Reinhold, 1945 
Point Group:  C1, Symmetry Number:   1  
Rotational constants in cm-1:     0.050827     0.017178     0.016202 

Vibrational entropy computed according to the QRRHO of S. Grimme
Chem.Eur.J. 2012 18 9955 using a reference frequency of 100.0 cm-1


-------
ENTROPY
-------

The entropy contributions are T*S = T*(S(el)+S(vib)+S(rot)+S(trans))
     S(el)   - electronic entropy
     S(vib)  - vibrational entropy
     S(rot)  - rotational entropy
     S(trans)- translational entropy
The entropies will be listed as multiplied by the temperature to get
units of energy

Electronic entropy                ...      0.00000000 Eh      0.00 kcal/mol
Vibrational entropy               ...      0.01955998 Eh     12.27 kcal/mol
Rotational entropy                ...      0.01706927 Eh     10.71 kcal/mol
Translational entropy             ...      0.02299358 Eh     14.43 kcal/mol
-----------------------------------------------------------------------
Final entropy term                ...      0.05962284 Eh     37.41 kcal/mol

In case the symmetry of your molecule has not been determined correctly
or in case you have a reason to use a different symmetry number we print 
out the resulting rotational entropy values for sn=1,12:

 non-linear molecules -----------------------------------
|  sn= 1 | S(rot)=       0.01706927 Eh     10.71 kcal/mol|
|  sn= 2 | S(rot)=       0.01632295 Eh     10.24 kcal/mol|
|  sn= 3 | S(rot)=       0.01588638 Eh      9.97 kcal/mol|
|  sn= 4 | S(rot)=       0.01557663 Eh      9.77 kcal/mol|
|  sn= 5 | S(rot)=       0.01533637 Eh      9.62 kcal/mol|
|  sn= 6 | S(rot)=       0.01514007 Eh      9.50 kcal/mol|
|  sn= 7 | S(rot)=       0.01497409 Eh      9.40 kcal/mol|
|  sn= 8 | S(rot)=       0.01483031 Eh      9.31 kcal/mol|
|  sn= 9 | S(rot)=       0.01470350 Eh      9.23 kcal/mol|
|  sn=10 | S(rot)=       0.01459005 Eh      9.16 kcal/mol|
|  sn=11 | S(rot)=       0.01448743 Eh      9.09 kcal/mol|
|  sn=12 | S(rot)=       0.01439375 Eh      9.03 kcal/mol|
 linear molecules ---------------------------------------
|  Dinfh | S(rot)=       0.01065369 Eh      6.69 kcal/mol|
|  Cinfv | S(rot)=       0.01140001 Eh      7.15 kcal/mol|
 --------------------------------------------------------


-------------------
GIBBS FREE ENERGY
-------------------

The Gibbs free energy is G = H - T*S

Total enthalpy                    ...   -928.19797745 Eh 
Total entropy correction          ...     -0.05962284 Eh    -37.41 kcal/mol
-----------------------------------------------------------------------
Final Gibbs free energy         ...   -928.25760029 Eh

For completeness - the Gibbs free energy minus the electronic energy
G-E(el)                           ...      0.03769128 Eh     23.65 kcal/mol


Maximum memory used throughout the entire PROP-calculation: 108.0 MB

--------------------------------
SUGGESTED CITATIONS FOR THIS RUN
--------------------------------

Below you find a list of papers that are relevant to this ORCA run
We neither can nor want to force you to cite these papers, but we appreciate if you do
You receive ORCA, which is the product of decades of hard work by many enthusiastic individuals, for free
The only thing we kindly ask in return is that you cite our papers,
We deeply appreciate it, if you show your appreciation for ORCA by not just citing the generic ORCA reference.

Please note that relegating all ORCA citations to the supporting information does *not* help us.
SI sections are not indexed - citations you put there will not count into any citation statistics
But we need these citations in order to attract the funding resources that allow us to do what we are doing

Therefore, if you are a happy ORCA user, please consider citing a few of the papers listed below in the main body of your paper

In addition to the list printed below, the program has created the file HFE_347pcf2_gauche2.bibtex that contains the list in bibtex format
You can import this file easily into all common literature databanks and citation aid programs

It goes without saying that in many instances, there are alternative algorithms to achieve similar
results as the ones you have gotten from ORCA. It is, of course, also the case that in some instances
ORCA just re-implements algorithms worked out by others. We are fully aware of that and we are also
fully appreciative of our colleagues work. Hence this citation list should not be read as indicating
that the listed papers, which are focused on our own work, are the only ones worth citing. It simply
meant to make it easier for users to cite ORCA specific papers. It is not a substitute for doing your
own literature research and citing the relevant literature in a scientifically appropriate manner.

List of essential papers. We consider these as the minimum necessary citations

  1. Neese, F.
     Software update: the ORCA program system, version 6.0
     WIRES Comput. Molec. Sci. 2025 15(1), e70019
     doi.org/10.1002/wcms.70019

List of papers to cite with high priority. The work reported in these papers was absolutely
necessary for this run to complete.
Our perspective: the developers of density functionals and basis sets usually get cited in chemistry papers
Good! But without the algorithms to do something with them, the functionals or basis sets would not do anything.
Hence, in our opinion, the algorithm design and method developments papers are equally worthy of getting cited

  1. Neese, F.
     An improvement of the resolution of the identity approximation for the formation of the Coulomb matrix
     J. Comp. Chem. 2003 24(14), 1740-1747
     doi.org/10.1002/jcc.10318
  2. Neese, F.; Wennmohs, F.; Hansen, A.; Becker, U.
     Efficient, approximate and parallel Hartree-Fock and hybrid DFT calculations. A 'chain-of-spheres' algorithm for the Hartree-Fock exchange
     Chem. Phys. 2009 356(1-3), 98-109
     doi.org/10.1016/j.chemphys.2008.10.036
  3. Bykov, D.; Petrenko, T.; Izsak, R.; Kossmann, S.; Becker, U.; Valeev, E.; Neese, F.
     Efficient implementation of the analytic second derivatives of Hartree-Fock and hybrid DFT energies: a detailed analysis of different approximations
     Molec. Phys. 2015 113 , 1961-1977
     doi.org/10.1080/00268976.2015.1025114
  4. Helmich-Paris, B.; de Souza, B.; Neese, F.; Izsák, R.
     An improved chain of spheres for exchange algorithm
     J. Chem. Phys. 2021 155(10), 104109
     doi.org/10.1063/5.0058766
  5. Neese, F.
     The SHARK Integral Generation and Digestion System
     J. Comp. Chem. 2022 44(3), 381
     doi.org/10.1002/jcc.26942

List of suggested additional citations. These are papers that are important in the 'surrounding' of 
of this run, or papers that preceded the highly important papers. If you like your results we are grateful for a citation.

  1. Izsak, R.; Neese, F.
     An overlap fitted chain of spheres exchange method
     J. Chem. Phys. 2011 135 , 144105
     doi.org/10.1063/1.3646921
  2. Izsak, R.; Hansen, A.; Neese, F.
     The resolution of identity and chain of spheres approximations for the LPNO-CCSD singles Fock term
     Molec. Phys. 2012 110 , 2413-2417
     doi.org/10.1080/00268976.2012.687466
  3. Neese, F.
     The ORCA program system
     WIRES Comput. Molec. Sci. 2012 2(1), 73-78
     doi.org/10.1002/wcms.81
  4. Izsak, R.; Neese, F.; Klopper, W.
     Robust fitting techniques in the chain of spheres approximation to the Fock exchange: The role of the complementary space
     J. Chem. Phys. 2013 139 , 
     doi.org/10.1063/1.4819264
  5. Neese, F.
     Software update: the ORCA program system, version 4.0
     WIRES Comput. Molec. Sci. 2018 8(1), 1-6
     doi.org/10.1002/wcms.1327
  6. Neese, F.; Wennmohs, F.; Becker, U.; Riplinger, C.
     The ORCA quantum chemistry program package
     J. Chem. Phys. 2020 152(22), 224108
     doi.org/10.1063/5.0004608
  7. Neese, F.
     Software update: The ORCA program system—Version 5.0
     WIRES Comput. Molec. Sci. 2022 12(1), e1606
     doi.org/10.1002/wcms.1606

List of optional additional citations

  1. Neese, F.
     Approximate second-order SCF convergence for spin unrestricted wavefunctions
     Chem. Phys. Lett. 2000 325(1-3), 93-98
     doi.org/10.1016/s0009-2614(00)00662-x

Timings for individual modules:

Sum of individual times          ...     4877.405 sec (=  81.290 min)
Startup calculation              ...       35.230 sec (=   0.587 min)   0.7 %
SCF iterations                   ...     1521.215 sec (=  25.354 min)  31.2 %
Property integrals               ...      539.904 sec (=   8.998 min)  11.1 %
SCF Response                     ...      274.051 sec (=   4.568 min)   5.6 %
Property calculations            ...     1504.123 sec (=  25.069 min)  30.8 %
SCF Gradient evaluation          ...     1002.798 sec (=  16.713 min)  20.6 %
Geometry relaxation              ...        0.085 sec (=   0.001 min)   0.0 %
                             ****ORCA TERMINATED NORMALLY****
TOTAL RUN TIME: 0 days 1 hours 21 minutes 19 seconds 732 msec
