
                                 *****************
                                 * O   R   C   A *
                                 *****************

                                            #,                                       
                                            ###                                      
                                            ####                                     
                                            #####                                    
                                            ######                                   
                                           ########,                                 
                                     ,,################,,,,,                         
                               ,,#################################,,                 
                          ,,##########################################,,             
                       ,#########################################, ''#####,          
                    ,#############################################,,   '####,        
                  ,##################################################,,,,####,       
                ,###########''''           ''''###############################       
              ,#####''   ,,,,##########,,,,          '''####'''          '####       
            ,##' ,,,,###########################,,,                        '##       
           ' ,,###''''                  '''############,,,                           
         ,,##''                                '''############,,,,        ,,,,,,###''
      ,#''                                            '''#######################'''  
     '                                                          ''''####''''         
             ,#######,   #######,   ,#######,      ##                                
            ,#'     '#,  ##    ##  ,#'     '#,    #''#        ,####,    ,#,          
            ##       ##  ##   ,#'  ##            #'  '#       #'       ,# #          
            ##       ##  #######   ##           ,######,      #####,      #          
            '#,     ,#'  ##    ##  '#,     ,#' ,#      #,     #,   #      #          
             '#######'   ##     ##  '#######'  #'      '#     '####' #    #          



                #########################################################
                #                        -***-                          #
                #          Department of theory and spectroscopy        #
                #                                                       #
                #                      Frank Neese                      #
                #                                                       #
                #     Directorship, Architecture, Infrastructure        #
                #                    SHARK, DRIVERS                     #
                #        Core code/Algorithms in most modules           #
                #                                                       #
                #        Max Planck Institute fuer Kohlenforschung      #
                #                Kaiser Wilhelm Platz 1                 #
                #                 D-45470 Muelheim/Ruhr                 #
                #                      Germany                          #
                #                                                       #
                #                  All rights reserved                  #
                #                        -***-                          #
                #########################################################


                         Program Version 6.1.1  -  RELEASE   -
                                (GIT: $487d211c$)
                          ($2025-11-21 10:33:24 +0100$)


 With contributions from (in alphabetic order):
[Max-Planck-Institut fuer Kohlenforschung]                               
  Daniel Aravena         : Magnetic Suceptibility                        
  Michael Atanasov       : Ab Initio Ligand Field Theory (pilot matlab implementation)
  Alexander A. Auer      : GIAO ZORA, VPT2 properties, NMR spectrum      
  Ute Becker             : All parallelization in ORCA, NUMFREQ, NUMCALC 
  Giovanni Bistoni       : ED, misc. LED, open-shell LED, HFLD           
  Dmytro Bykov           : pre 5.0 version of the SCF Hessian            
  Marcos Casanova-Páez   : Triplet and SCS-CIS(D). UHF-(DLPNO)-IP/EA/STEOM-CCSD. UHF-CVS-IP/STEOM-CCSD   
  Vijay G. Chilkuri      : MRCI spin determinant printing, contributions to CSF-ICE 
  Pauline Colinet        : FMM embedding                                 
  Dipayan Datta          : RHF DLPNO-CCSD density                        
  Achintya Kumar Dutta   : EOM-CC, STEOM-CC                              
  Nicolas Foglia         : Exact transition moments, OPA infrastructure, MCD improvements    
  Dmitry Ganyushin       : Spin-Orbit,Spin-Spin,Magnetic field MRCI      
  Miquel Garcia-Rates    : C-PCM and meta-GGA Hessian, CCSD/C-PCM, Gaussian charge scheme 
  Tiago L. C. Gouveia    : GS-ROHF, GS-ROCIS                             
  Yang Guo               : DLPNO-NEVPT2, F12-NEVPT2, CIM, IAO-localization        
  Andreas Hansen         : Spin unrestricted coupled pair/coupled cluster methods 
  Ingolf Harden          : AUTO-CI MPn and infrastructure                
  Benjamin Helmich-Paris : MC-RPA, TRAH-(SCF,CASSCF), AVAS, COSX integrals, SCF dyn. polar., MC-PDFT, srDFT 
  Lee Huntington         : MR-EOM, pCC                                   
  Robert Izsak           : Overlap fitted RIJCOSX, COSX-SCS-MP3, EOM     
  Riya Kayal             : Wick's Theorem for AUTO-CI, AUTO-CI UHF-CCSDT 
  Emily Kempfer          : AUTO-CI RHF CISDT and CCSDT, approximate NEVPT4
  Christian Kollmar      : KDIIS, OOCD, Brueckner-CCSD(T), CCSD density, CASPT2, CASPT2-K, improved NEVPT2 
  Axel Koslowski         : Symmetry handling                             
  Simone Kossmann        : meta-GGA functionals, TD-DFT gradient, OOMP2, (MP2 Hessian; deprecated post 5.0) 
  Lucas Lang             : DCDCAS, Hyperfine gauge corrections, ICE-SOC+SSC
  Marvin Lechner         : AUTO-CI (C++ implementation), FIC-MRCC        
  Spencer Leger          : CASSCF response                               
  Dagmar Lenk            : GEPOL surface, SMD, ORCA-2-JSON               
  Dimitrios Liakos       : Extrapolation schemes; Compound Job, Property file
  Dimitrios Manganas     : Further ROCIS development; embedding schemes. LFT, Crystal Embedding 
  Dimitrios Pantazis     : SARC Basis sets                               
  Anastasios Papadopoulos: AUTO-CI, single reference methods and gradients 
  Taras Petrenko         : pre 6.0 DFT Hessian and TD-DFT gradient,  ECA, NRVS 
  Petra Pikulova         : Analytic Raman intensities                    
  Peter Pinski           : DLPNO-MP2, DLPNO-MP2 Gradient                 
  Shashank Vittal Rao    : ES-AILFT, MagRelax                            
  Christoph Reimann      : Effective Core Potentials                     
  Marius Retegan         : Local ZFS, SOC                                
  Christoph Riplinger    : Optimizer, TS searches, QM/MM, DLPNO-CCSD(T), (RO)-DLPNO pert. Triples 
  Michael Roemelt        : Original ROCIS implementation, recursive CI coupling coefficients
  Masaaki Saitow         : Open-shell DLPNO-CCSD energy and density      
  Barbara Sandhoefer     : DKH picture change effects                    
  Yorick L. A. Schmerwitz: GMF and freeze-and-release deltaSCF, NEB S-IDPP initial path                    
  Kantharuban Sivalingam : CASSCF convergence/infrastructure, NEVPT2, NEVPT3, NEVPT4(SD), FIC-MRCI and CEPA variants
  Bernardo de Souza      : ESD, SOC TD-DFT                               
  Georgi L. Stoychev     : AutoAux, RI-MP2 NMR, DLPNO-MP2 response, X2C  
  Van Anh Tran           : RI-MP2 g-tensors                              
  Willem Van den Heuvel  : Paramagnetic NMR                              
  Zikuan Wang            : NOTCH, Electric field optimization            
  Frank Wennmohs         : Technical directorship and infrastructure     
  Hang Xu                : AUTO-CI-Response properties                   
                                                                         
[FACCTs GmbH]                                                            
  Markus Bursch, Nicolas Foglia, Miquel Garcia-Rates, Ingolf Harden, Hagen Neugebauer, Anastasios Papadopoulos, 
  Christoph Riplinger, Bernardo de Souza, Georgi L. Stoychev                                                    
                                                                 
  APM, various basis sets, CI-OPT, improved COSX, DLPNO-Multilevel,           
  DOCKER, DRACO, updates on ESD, Fragmentator, GOAT, IRC, LR-CPCM, L-BFGS, MBIS, meta-GGA TD-DFT gradient, ML-optimized integration grids, 
  MM, NACMEs, nearIR, NEB, NEB-TS, NL-DFT gradient (VV10), 2- and 3-layer-ONIOM, interface openCOSMO-RS, QMMM,   
  Crystal-QMMM, RESP, rigid body optimization, SF, symmetry and pop. for TD-DFT, various functionals, SOLVATOR                                   
                                                                         
[Other institutions]                                                     
  V. Asgeirsson          : NEB                                           
  Christoph Bannwarth    : sTDA-DFT, sTD-DFT, PBEh-3c, B97-3c, D3        
  Giovanni Bistoni       : ETS/NOCV, ADLD/ADEX, COVALED                  
  Martin Brehm           : Molecular dynamics                            
  Ronald Cardenas        : ETS/NOCV                                      
  Martina Colucci        : COVALED                                       
  Sebastian Ehlert       : rSCAN, r2SCAN, r2SCAN-3c, D4, dhf basis sets  
  Marvin Friede          : D4 for Fr, Ra, Ac-Lr                          
  Lars Goerigk           : TD-DFT with DH, B97 family of functionals     
  Stefan Grimme          : VdW corrections, initial TS optimization, DFT functionals, gCP, sTDA/sTD-DF 
  Waldemar Hujo          : DFT-NL                                        
  H. Jonsson             : NEB                                           
  Holger Kruse           : gCP                                           
  Marcel Mueller         : wB97X-3c, vDZP basis set                      
  Hagen Neugebauer       : wr2SCAN, Native XTB                           
  Gianluca Regni         : ADLD/ADEX                                     
  Tobias Risthaus        : pre 6.0 range-separated hybrid DFT and stability analysis
  Lukas Wittmann         : regularized MP2, r2SCAN double-hybrids, wr2SCAN        
                                                                         
We gratefully acknowledge several colleagues who have allowed us to      
interface, adapt or use parts of their codes:                            
  Ed Valeev, F. Pavosevic, A. Kumar             : LibInt (2-el integral package), F12 methods 
  Garnet Chan, S. Sharma, J. Yang, R. Olivares  : DMRG                   
  Ulf Ekstrom                                   : XCFun DFT Library      
  Mihaly Kallay                                 : mrcc  (arbitrary order and MRCC methods)
  Frank Weinhold                                : gennbo (NPA and NBO analysis)           
  Simon Mueller                                 : openCOSMO-RS                            
  Christopher J. Cramer and Donald G. Truhlar   : smd solvation model                     
  S Lehtola, MJT Oliveira, MAL Marques          : LibXC Library                           
  Liviu Ungur et al                             : ANISO software                          


 Your calculation uses the libint2 library for the computation of 2-el integrals
 For citations please refer to: http://libint.valeyev.net

 Your ORCA version has been built with support for libXC version: 7.0.0
 For citations please refer to: https://libxc.gitlab.io

 This ORCA versions uses:
   CBLAS   interface :  Fast vector & matrix operations
   LAPACKE interface :  Fast linear algebra routines
   SCALAPACK package :  Parallel linear algebra routines
   Shared memory     :  Shared parallel matrices
   BLAS/LAPACK       :  OpenBLAS 0.3.29  USE64BITINT DYNAMIC_ARCH NO_AFFINITY Cooperlake SINGLE_THREADED
        Core in use  :  Cooperlake
   Copyright (c) 2011-2014, The OpenBLAS Project


  ***********************************
  * Starting time: Wed Feb 18 13:04:08 2026
  * Host name:     Breado
  * Process ID:    14567
  * Working dir.:  /home/bread/other_data/B3LYP_6-311+G2dp
  ***********************************

Warning: RI is on but no J-basis has been assigned. Assigning Def2/J (nothing to worry about!)
================================================================================

----- Orbital basis set information -----
Your calculation utilizes the basis: 6-311+G(2d,p)
   H, Li - Ne  : R. Krishnan, J. S. Binkley, R. Seeger and J. A. Pople, J. Chem. Phys. 72, 650 (1980).
   Na - Ar     : A. D. McLean and G. S. Chandler J. Chem. Phys. 72, 5639, (1980).
   K  - Ca     : J.-P. Blaudeau, M. P. McGrath, L. A. Curtiss and L. Radom, J. Chem. Phys. 107, 5016 (1997).
   Ga - Kr     : L. A. Curtiss, M. P. McGrath, J.-P. Blandeau, N. E. Davis, R. C. Binning and L. Radom, J. Chem. Phys. 103, 6104 (1995).
   Pol./Diff.
   H, Li - Cl  : T. Clark, J. Chandrasekhar and P. v. R. Schleyer, J. Comp. Chem. 4, 294 (1983).
   H - Ne      : M. J. Frisch, J. A. Pople and J. S. Binkley, J. Chem. Phys. 80, 3265 (1984).

----- AuxJ basis set information -----
Your calculation utilizes the auxiliary basis: def2/J
   H-Rn: F. Weigend, Phys. Chem. Chem. Phys. 8, 1057 (2006).
   Fr-Lr: K. Eichkorn, F. Weigend, O. Treutler, R. Ahlrichs; Theor. Chem. Acc. 97, 119 (1997).

================================================================================
                                        WARNINGS
                       Please study these warnings very carefully!
================================================================================


WARNING: Geometry Optimization
  ===> : Switching off AutoStart
         For restart on a previous wavefunction, please use MOREAD

================================================================================
                                       INPUT FILE
================================================================================
NAME = HFE_347pcf2_gauche1.inp
|  1> # avogadro generated ORCA input file 
|  2> # Basic Mode
|  3> # 
|  4> ! B3LYP 6-311+G(2d,p) OPT FREQ 
|  5> % FREQ TEMP 305, 320, 340 END
|  6> 
|  7> * xyz 0 1
|  8>    F        2.03360        0.95850       -1.19810
|  9>    F        1.40780        1.54460        0.81840
| 10>    F        3.14700       -0.57680        0.75040
| 11>    F        1.78880       -1.67110       -0.55230
| 12>    F       -2.75120        1.05380       -0.44060
| 13>    F       -3.13920       -0.46580        1.07550
| 14>    F       -2.38540       -1.04850       -0.89120
| 15>    O       -0.05490        0.42730       -0.50780
| 16>    C        1.30530        0.57550       -0.12160
| 17>    C       -0.88930        0.03820        0.57430
| 18>    C        1.84110       -0.72430        0.41630
| 19>    C       -2.30350       -0.11120        0.07660
| 20>    H       -0.85070        0.79020        1.36930
| 21>    H       -0.60420       -0.93450        0.98000
| 22>    H        1.34190       -1.10100        1.30910
| 23> *
| 24> 
| 25> 
| 26>                          ****END OF INPUT****
================================================================================

                       *****************************
                       * Geometry Optimization Run *
                       *****************************

Geometry optimization settings:
Update method            Update   .... BFGS
Choice of coordinates    CoordSys .... (2022) Redundant Internals
Initial Hessian          InHess   .... Almloef's Model
Max. no of cycles        MaxIter  .... 50

Convergence Tolerances:
Energy Change            TolE     ....  5.0000e-06 Eh
Max. Gradient            TolMAXG  ....  3.0000e-04 Eh/bohr
RMS Gradient             TolRMSG  ....  1.0000e-04 Eh/bohr
Max. Displacement        TolMAXD  ....  4.0000e-03 bohr
RMS Displacement         TolRMSD  ....  2.0000e-03 bohr
Strict Convergence                .... False

------------------------------------------------------------------------------
                        ORCA OPTIMIZATION COORDINATE SETUP
------------------------------------------------------------------------------

The optimization will be done in redundant internal coordinates (2022)
Making redundant internal coordinates   ...  (2022 redundants) done
Evaluating the initial hessian          ...  (Almloef) done
Evaluating the coordinates              ...  done
Calculating the B-matrix                .... done
Calculating the G-matrix                .... done
The number of degrees of freedom        ....   57

    -----------------------------------------------------------------
                    Redundant Internal Coordinates


    -----------------------------------------------------------------
         Definition                    Initial Value    Approx d2E/dq
    -----------------------------------------------------------------
      1. B(C   8,F   1)                  1.3540         0.593519   
      2. B(C   8,O   7)                  1.4217         0.498064   
      3. B(C   8,F   0)                  1.3550         0.591349   
      4. B(C   9,O   7)                  1.4208         0.499802   
      5. B(C  10,F   3)                  1.3555         0.590237   
      6. B(C  10,C   8)                  1.5053         0.409073   
      7. B(C  10,F   2)                  1.3560         0.589116   
      8. B(C  11,F   6)                  1.3498         0.602772   
      9. B(C  11,F   5)                  1.3498         0.602722   
     10. B(C  11,C   9)                  1.5066         0.407038   
     11. B(C  11,F   4)                  1.3510         0.600088   
     12. B(H  12,C   9)                  1.0950         0.353550   
     13. B(H  13,C   9)                  1.0918         0.357731   
     14. B(H  14,C  10)                  1.0900         0.360042   
     15. A(C   8,O   7,C   9)          112.5529         0.396621   
     16. A(F   1,C   8,C  10)          110.0601         0.395702   
     17. A(F   1,C   8,O   7)          109.6106         0.407036   
     18. A(O   7,C   8,C  10)          110.3408         0.385424   
     19. A(F   0,C   8,C  10)          109.6731         0.395448   
     20. A(F   0,C   8,F   1)          107.9727         0.417791   
     21. A(F   0,C   8,O   7)          109.1410         0.406773   
     22. A(H  12,C   9,H  13)          109.4422         0.289702   
     23. A(C  11,C   9,H  13)          106.2311         0.328574   
     24. A(O   7,C   9,H  13)          111.9409         0.337905   
     25. A(C  11,C   9,H  12)          109.9391         0.327938   
     26. A(O   7,C   9,H  12)          110.1320         0.337243   
     27. A(O   7,C   9,C  11)          109.0757         0.385323   
     28. A(F   3,C  10,H  14)          109.0393         0.346384   
     29. A(F   2,C  10,H  14)          106.0711         0.346274   
     30. A(F   2,C  10,F   3)          106.8099         0.417097   
     31. A(F   3,C  10,C   8)          109.5154         0.395317   
     32. A(C   8,C  10,H  14)          115.3455         0.329195   
     33. A(F   2,C  10,C   8)          109.6887         0.395186   
     34. A(F   4,C  11,C   9)          110.6102         0.396120   
     35. A(F   5,C  11,F   6)          108.0967         0.420370   
     36. A(F   4,C  11,F   6)          107.7110         0.420042   
     37. A(F   4,C  11,F   5)          107.7389         0.420035   
     38. A(F   6,C  11,C   9)          111.2641         0.396430   
     39. A(F   5,C  11,C   9)          111.2680         0.396425   
     40. D(F   1,C   8,O   7,C   9)    -61.3572         0.019607   
     41. D(F   0,C   8,O   7,C   9)   -179.4173         0.019607   
     42. D(C  10,C   8,O   7,C   9)     60.0038         0.019607   
     43. D(H  13,C   9,O   7,C   8)    -62.0724         0.019748   
     44. D(H  12,C   9,O   7,C   8)     59.9242         0.019748   
     45. D(C  11,C   9,O   7,C   8)   -179.3399         0.019748   
     46. D(F   2,C  10,C   8,F   0)     58.2858         0.013258   
     47. D(F   3,C  10,C   8,O   7)     61.6286         0.013258   
     48. D(F   3,C  10,C   8,F   1)   -177.2779         0.013258   
     49. D(F   3,C  10,C   8,F   0)    -58.6311         0.013258   
     50. D(F   2,C  10,C   8,O   7)    178.5455         0.013258   
     51. D(F   2,C  10,C   8,F   1)    -60.3609         0.013258   
     52. D(F   4,C  11,C   9,H  13)    179.6130         0.013130   
     53. D(F   4,C  11,C   9,H  12)     61.2936         0.013130   
     54. D(F   4,C  11,C   9,O   7)    -59.5604         0.013130   
     55. D(F   5,C  11,C   9,H  13)     59.8979         0.013130   
     56. D(F   5,C  11,C   9,H  12)    -58.4215         0.013130   
     57. D(F   5,C  11,C   9,O   7)   -179.2756         0.013130   
    -----------------------------------------------------------------

Number of atoms                         .... 15
Number of degrees of freedom            .... 57


         *************************************************************
         *                GEOMETRY OPTIMIZATION CYCLE   1            *
         *************************************************************
---------------------------------
CARTESIAN COORDINATES (ANGSTROEM)
---------------------------------
  F      2.033600    0.958500   -1.198100
  F      1.407800    1.544600    0.818400
  F      3.147000   -0.576800    0.750400
  F      1.788800   -1.671100   -0.552300
  F     -2.751200    1.053800   -0.440600
  F     -3.139200   -0.465800    1.075500
  F     -2.385400   -1.048500   -0.891200
  O     -0.054900    0.427300   -0.507800
  C      1.305300    0.575500   -0.121600
  C     -0.889300    0.038200    0.574300
  C      1.841100   -0.724300    0.416300
  C     -2.303500   -0.111200    0.076600
  H     -0.850700    0.790200    1.369300
  H     -0.604200   -0.934500    0.980000
  H      1.341900   -1.101000    1.309100

----------------------------
CARTESIAN COORDINATES (A.U.)
----------------------------
  NO LB      ZA    FRAG     MASS         X           Y           Z
   0 F     9.0000    0    18.998    3.842947    1.811302   -2.264081
   1 F     9.0000    0    18.998    2.660356    2.918871    1.546552
   2 F     9.0000    0    18.998    5.946968   -1.089994    1.418050
   3 F     9.0000    0    18.998    3.380342   -3.157921   -1.043696
   4 F     9.0000    0    18.998   -5.199015    1.991393   -0.832613
   5 F     9.0000    0    18.998   -5.932228   -0.880234    2.032400
   6 F     9.0000    0    18.998   -4.507753   -1.981378   -1.684124
   7 O     8.0000    0    15.999   -0.103746    0.807480   -0.959603
   8 C     6.0000    0    12.011    2.466660    1.087537   -0.229791
   9 C     6.0000    0    12.011   -1.680533    0.072188    1.085270
  10 C     6.0000    0    12.011    3.479175   -1.368729    0.786693
  11 C     6.0000    0    12.011   -4.352984   -0.210138    0.144753
  12 H     1.0000    0     1.008   -1.607590    1.493262    2.587602
  13 H     1.0000    0     1.008   -1.141773   -1.765949    1.851932
  14 H     1.0000    0     1.008    2.535823   -2.080588    2.473840

--------------------------------
INTERNAL COORDINATES (ANGSTROEM)
--------------------------------
 F      0   0   0     0.000000000000     0.00000000     0.00000000
 F      1   0   0     2.191212244398     0.00000000     0.00000000
 F      1   2   0     2.719091373970    66.95269226     0.00000000
 F      3   1   2     2.176976577733    66.39338032   114.53912106
 F      2   1   3     4.373013450700    88.66211289   235.33513761
 F      5   2   1     2.181349896280    92.70835785   120.39000474
 F      5   2   1     2.180943669607    90.46710442    60.27552537
 O      1   2   3     2.262856553120    61.21437214   105.48298545
 C      2   1   3     1.353979711813    36.02899012   290.80489025
 C      8   1   2     1.420761267772   146.99999123   325.10918997
 C      4   3   1     1.355489391327    36.60314589   290.12731330
 C      7   5   2     1.349768772790    36.16333255    55.34989779
 H     10   8   1     1.094997242006   110.13203910    59.31889680
 H     10   8   1     1.091796588198   111.94085263   297.32238297
 H     11   4   3     1.090043746829   109.03927371   245.78398568

---------------------------
INTERNAL COORDINATES (A.U.)
---------------------------
 F      0   0   0     0.000000000000     0.00000000     0.00000000
 F      1   0   0     4.140791043207     0.00000000     0.00000000
 F      1   2   0     5.138338029912    66.95269226     0.00000000
 F      3   1   2     4.113889531877    66.39338032   114.53912106
 F      2   1   3     8.263797801776    88.66211289   235.33513761
 F      5   2   1     4.122153906226    92.70835785   120.39000474
 F      5   2   1     4.121386249067    90.46710442    60.27552537
 O      1   2   3     4.276179165747    61.21437214   105.48298545
 C      2   1   3     2.558650846211    36.02899012   290.80489025
 C      8   1   2     2.684849697771   146.99999123   325.10918997
 C      4   3   1     2.561503727044    36.60314589   290.12731330
 C      7   5   2     2.550693324693    36.16333255    55.34989779
 H     10   8   1     2.069244904790   110.13203910    59.31889680
 H     10   8   1     2.063196545643   111.94085263   297.32238297
 H     11   4   3     2.059884155499   109.03927371   245.78398568

---------------------
BASIS SET INFORMATION
---------------------
There are 4 groups of distinct atoms

 Group   1 Type F   : 12s6p2d contracted to 5s4p2d pattern {63111/3111/11}
 Group   2 Type O   : 12s6p2d contracted to 5s4p2d pattern {63111/3111/11}
 Group   3 Type C   : 12s6p2d contracted to 5s4p2d pattern {63111/3111/11}
 Group   4 Type H   : 5s1p contracted to 3s1p pattern {311/1}

Atom   0F    basis set group =>   1
Atom   1F    basis set group =>   1
Atom   2F    basis set group =>   1
Atom   3F    basis set group =>   1
Atom   4F    basis set group =>   1
Atom   5F    basis set group =>   1
Atom   6F    basis set group =>   1
Atom   7O    basis set group =>   2
Atom   8C    basis set group =>   3
Atom   9C    basis set group =>   3
Atom  10C    basis set group =>   3
Atom  11C    basis set group =>   3
Atom  12H    basis set group =>   4
Atom  13H    basis set group =>   4
Atom  14H    basis set group =>   4
---------------------------------
AUXILIARY/J BASIS SET INFORMATION
---------------------------------
There are 4 groups of distinct atoms

 Group   1 Type F   : 12s5p4d2f1g contracted to 6s4p3d1f1g pattern {711111/2111/211/2/1}
 Group   2 Type O   : 12s5p4d2f1g contracted to 6s4p3d1f1g pattern {711111/2111/211/2/1}
 Group   3 Type C   : 12s5p4d2f1g contracted to 6s4p3d1f1g pattern {711111/2111/211/2/1}
 Group   4 Type H   : 5s2p1d contracted to 3s1p1d pattern {311/2/1}

Atom   0F    basis set group =>   1
Atom   1F    basis set group =>   1
Atom   2F    basis set group =>   1
Atom   3F    basis set group =>   1
Atom   4F    basis set group =>   1
Atom   5F    basis set group =>   1
Atom   6F    basis set group =>   1
Atom   7O    basis set group =>   2
Atom   8C    basis set group =>   3
Atom   9C    basis set group =>   3
Atom  10C    basis set group =>   3
Atom  11C    basis set group =>   3
Atom  12H    basis set group =>   4
Atom  13H    basis set group =>   4
Atom  14H    basis set group =>   4
------------------------------------------------------------------------------
                             ORCA STARTUP CALCULATIONS
                           -- RI-GTO INTEGRALS CHOSEN --
------------------------------------------------------------------------------
------------------------------------------------------------------------------
                   ___                                                        
                  /   \      - P O W E R E D   B Y -                         
                 /     \                                                     
                 |  |  |   _    _      __       _____    __    __             
                 |  |  |  | |  | |    /  \     |  _  \  |  |  /  |          
                  \  \/   | |  | |   /    \    | | | |  |  | /  /          
                 / \  \   | |__| |  /  /\  \   | |_| |  |  |/  /          
                |  |  |   |  __  | /  /__\  \  |    /   |      \           
                |  |  |   | |  | | |   __   |  |    \   |  |\   \          
                \     /   | |  | | |  |  |  |  | |\  \  |  | \   \       
                 \___/    |_|  |_| |__|  |__|  |_| \__\ |__|  \__/        
                                                                              
                      - O R C A' S   B I G   F R I E N D -                    
                                      &                                       
                       - I N T E G R A L  F E E D E R -                       
                                                                              
 v1 FN, 2020, v2 2021, v3 2022-2024                                           
------------------------------------------------------------------------------


----------------------
SHARK INTEGRAL PACKAGE
----------------------

Number of atoms                             ...     15
Number of basis functions                   ...    342
Number of shells                            ...    144
Maximum angular momentum                    ...      2
Integral batch strategy                     ... SHARK/LIBINT Hybrid
RI-J (if used) integral strategy            ... SPLIT-RIJ (Revised 2003 algorithm where possible)
Printlevel                                  ...      1
Contraction scheme used                     ... SEGMENTED contraction
Prescreening option                         ... SCHWARTZ
   Thresh                                   ... 2.500e-11
   Tcut                                     ... 2.500e-12
   Tpresel                                  ... 2.500e-12 
Coulomb Range Separation                    ... NOT USED
Exchange Range Separation                   ... NOT USED
Multipole approximations                    ... NOT USED
Finite Nucleus Model                        ... NOT USED
CABS basis                                  ... NOT available
Auxiliary Coulomb fitting basis             ... AVAILABLE
   # of basis functions in Aux-J            ...    621
   # of shells in Aux-J                     ...    195
   Maximum angular momentum in Aux-J        ...      4
Auxiliary J/K fitting basis                 ... NOT available
Auxiliary Correlation fitting basis         ... NOT available
Auxiliary 'external' fitting basis          ... NOT available

Checking pre-screening integrals            ... done (  0.0 sec) Dimension = 144
   => SHARK Basis and OBASIS are compatible. Storing Pre-screening
Shell pair information
Shell pair cut-off parameter TPreSel        ...   2.5e-12
Total number of shell pairs                 ...     10440
Shell pairs after pre-screening             ...      8759
Total number of primitive shell pairs       ...     33672
Primitive shell pairs kept                  ...     20039
          la=0 lb=0:   1968 shell pairs
          la=1 lb=0:   3056 shell pairs
          la=1 lb=1:   1193 shell pairs
          la=2 lb=0:   1294 shell pairs
          la=2 lb=1:   1024 shell pairs
          la=2 lb=2:    224 shell pairs

Checking whether 4 symmetric matrices of dimension 342 fit in memory
:Max Core in MB      =   4096.00
 MB in use           =     14.13
 MB left             =   4081.87
 MB needed           =      1.79
 Data fit in memory  = YES
Calculating RI/J V-Matrix + Cholesky decomp.... done (  0.0 sec)
Calculating Nuclear repulsion               ... done (  0.0 sec) ENN=    847.814180921515 Eh

Diagonalization of the overlap matrix:
Smallest eigenvalue                        ... 4.717e-05
Time for diagonalization                   ...    0.013 sec
Threshold for overlap eigenvalues          ... 1.000e-07
Number of eigenvalues below threshold      ... 0
Time for construction of square roots      ...    0.005 sec
Total time needed                          ...    0.018 sec

-------------------
DFT GRID GENERATION
-------------------

General Integration Accuracy     IntAcc      ... 4.388
Radial Grid Type                 RadialGrid  ... OptM3 with GC (2021)
Angular Grid (max. ang.)         AngularGrid ... 4 (Lebedev-302)
Angular grid pruning method      GridPruning ... 4 (adaptive)
Weight generation scheme         WeightScheme... mBecke (2022)
Basis function cutoff            BFCut       ... 1.0000e-11
Integration weight cutoff        WCut        ... 1.0000e-14
Partially contracted basis set               ... off
Rotationally invariant grid construction     ... off
Angular grids for H and He will be reduced by one unit
Diffuse basis detected: some atoms will have their outermost
                        angular grid increased by 1.

Total number of grid points                  ...    86000
Total number of batches                      ...     1350
Average number of points per batch           ...       63
Average number of grid points per atom       ...     5733

--------------------
COSX GRID GENERATION
--------------------

GRIDX 1
-------
General Integration Accuracy     IntAcc      ... 3.816
Radial Grid Type                 RadialGrid  ... OptM3 with GC (2021)
Angular Grid (max. ang.)         AngularGrid ... 1 (Lebedev-50)
Angular grid pruning method      GridPruning ... 4 (adaptive)
Weight generation scheme         WeightScheme... mBecke (2022)
Basis function cutoff            BFCut       ... 1.0000e-11
Integration weight cutoff        WCut        ... 1.0000e-14
Partially contracted basis set               ... on
Rotationally invariant grid construction     ... off
Angular grids for H and He will be reduced by one unit
Diffuse basis detected: some atoms will have their outermost
                        angular grid increased by 1.

Total number of grid points                  ...    10883
Total number of batches                      ...       92
Average number of points per batch           ...      118
Average number of grid points per atom       ...      726
UseSFitting                                  ... on

GRIDX 2
-------
General Integration Accuracy     IntAcc      ... 4.020
Radial Grid Type                 RadialGrid  ... OptM3 with GC (2021)
Angular Grid (max. ang.)         AngularGrid ... 2 (Lebedev-110)
Angular grid pruning method      GridPruning ... 4 (adaptive)
Weight generation scheme         WeightScheme... mBecke (2022)
Basis function cutoff            BFCut       ... 1.0000e-11
Integration weight cutoff        WCut        ... 1.0000e-14
Partially contracted basis set               ... on
Rotationally invariant grid construction     ... off
Angular grids for H and He will be reduced by one unit
Diffuse basis detected: some atoms will have their outermost
                        angular grid increased by 1.

Total number of grid points                  ...    28258
Total number of batches                      ...      230
Average number of points per batch           ...      122
Average number of grid points per atom       ...     1884
UseSFitting                                  ... on

GRIDX 3
-------
General Integration Accuracy     IntAcc      ... 4.338
Radial Grid Type                 RadialGrid  ... OptM3 with GC (2021)
Angular Grid (max. ang.)         AngularGrid ... 3 (Lebedev-194)
Angular grid pruning method      GridPruning ... 4 (adaptive)
Weight generation scheme         WeightScheme... mBecke (2022)
Basis function cutoff            BFCut       ... 1.0000e-11
Integration weight cutoff        WCut        ... 1.0000e-14
Partially contracted basis set               ... on
Rotationally invariant grid construction     ... off
Angular grids for H and He will be reduced by one unit
Diffuse basis detected: some atoms will have their outermost
                        angular grid increased by 1.

Total number of grid points                  ...    60940
Total number of batches                      ...      483
Average number of points per batch           ...      126
Average number of grid points per atom       ...     4063
UseSFitting                                  ... on
Grids setup in   1.2 sec
Initializing property integral containers    ... done (  0.0 sec)

SHARK setup successfully completed in   1.5 seconds

Maximum memory used throughout the entire STARTUP-calculation: 46.9 MB
-------------------------------------------------------------------------------
                                 ORCA GUESS
                   Start orbitals & Density for SCF / CASSCF
-------------------------------------------------------------------------------

------------
SCF SETTINGS
------------
Hamiltonian:
 Density Functional     Method          .... DFT(GTOs)
 Exchange Functional    Exchange        .... B88
   X-Alpha parameter    XAlpha          ....  0.666667
   Becke's b parameter  XBeta           ....  0.004200
 Correlation Functional Correlation     .... LYP
 LDA part of GGA corr.  LDAOpt          .... VWN-5
 Gradients option       PostSCFGGA      .... off
 Hybrid DFT is turned on
   Fraction HF Exchange ScalHFX         ....  0.200000
   Scaling of DF-GGA-X  ScalDFX         ....  0.720000
   Scaling of DF-GGA-C  ScalDFC         ....  0.810000
   Scaling of DF-LDA-C  ScalLDAC        ....  1.000000
   Perturbative correction              ....  0.000000
   NL short-range parameter             ....  4.800000
 RI-approximation to the Coulomb term is turned on
   Number of AuxJ basis functions       .... 621
   RIJ-COSX (HFX calculated with COS-X)).... on


General Settings:
 Integral files         IntName         .... HFE_347pcf2_gauche1
 Hartree-Fock type      HFTyp           .... RHF
 Total Charge           Charge          ....    0
 Multiplicity           Mult            ....    1
 Number of Electrons    NEL             ....   98
 Basis Dimension        Dim             ....  342
 Nuclear Repulsion      ENuc            ....    847.8141809215 Eh

Convergence Acceleration:
 AO-DIIS                CNVDIIS         .... on
   Start iteration      DIISMaxIt       ....    12
   Startup error        DIISStart       ....  0.200000
   # of expansion vecs  DIISMaxEq       ....     5
   Bias factor          DIISBfac        ....   1.050
   Max. coefficient     DIISMaxC        ....  10.000
 MO-DIIS                CNVKDIIS        .... off
 Trust-Rad. Augm. Hess. CNVTRAH         .... auto
   Auto Start mean grad. ratio tolernc. ....  1.125000
   Auto Start start iteration           ....    50
   Auto Start num. interpolation iter.  ....    10
   Max. Number of Micro iterations      ....    24
   Max. Number of Macro iterations      .... Maxiter - #DIIS iter
   Number of Davidson start vectors     ....     2
   Converg. threshold    (grad. norm)   ....   1.000e-05
   Grad. Scal. Fac. for Micro threshold ....   0.100
   Minimum threshold for Micro iter.    ....   1.000e-02
   NR start threshold (gradient norm)   ....   1.000e-04
   Initial trust radius                 ....   0.400
   Minimum AH scaling param. (alpha)    ....   1.000
   Maximum AH scaling param. (alpha)    .... 1000.000
   Quad. conv. algorithm                .... NR
   White noise on init. David. guess    .... on
   Maximum white noise                  ....   0.010
   Pseudo random numbers                .... off
   Inactive MOs                         .... canonical
   Orbital update algorithm             .... Taylor
   Preconditioner                       .... Diag
   Full preconditioner red. dimension   ....   250
 SOSCF                 CNVSOSCF           .... on
   Start iteration     SOSCFMaxIt         ....   150
   Startup grad/error  SOSCFStart         ....  0.003300
   Hessian update      SOSCFHessUp        .... L-BFGS
   Autom. constraints  SOSCFAutoConstrain .... off
 Level Shifting         CNVShift        .... on
   Level shift para.    LevelShift      ....    0.2500
   Turn off err/grad.   ShiftErr        ....    0.0010
 Zerner damping         CNVZerner       .... off
 Static damping         CNVDamp         .... on
   Fraction old density DampFac         ....    0.7000
   Max. Damping (<1)    DampMax         ....    0.9800
   Min. Damping (>=0)   DampMin         ....    0.0000
   Turn off err/grad.   DampErr         ....    0.1000

SCF Procedure:
 Maximum # iterations   MaxIter         ....   125
 SCF integral mode      SCFMode         .... Direct
   Integral package                     .... SHARK and LIBINT hybrid scheme
 Reset frequency        DirectResetFreq ....    20
 Integral Threshold     Thresh          ....  2.500e-11 Eh
 Primitive CutOff       TCut            ....  2.500e-12 Eh

Convergence Tolerance:
 Convergence Check Mode ConvCheckMode   .... Total+1el-Energy
 Convergence forced     ConvForced      .... 0
 Energy Change          TolE            ....  1.000e-08 Eh
 1-El. energy change                    ....  1.000e-05 Eh
 Orbital Gradient       TolG            ....  1.000e-05
 Orbital Rotation angle TolX            ....  1.000e-05
 DIIS Error             TolErr          ....  5.000e-07

------------------------------
INITIAL GUESS: MODEL POTENTIAL
------------------------------
Loading Hartree-Fock densities                     ... done
Calculating cut-offs                               ... done
Initializing the effective Hamiltonian             ... done
Setting up the integral package (SHARK)            ... done
Starting the Coulomb interaction                   ... done (   0.2 sec)
Making the grid                                    ... done (   0.2 sec)
Mapping shells                                     ... done
Starting the XC term evaluation                    ... done (   0.3 sec)
  promolecular density results
     # of electrons  =     97.999969509
     EX              =   -100.074758870
     EC              =     -3.644413211
     EX+EC           =   -103.719172082
Transforming the Hamiltonian                       ... done (   0.0 sec)
Diagonalizing the Hamiltonian                      ... done (   0.0 sec)
Back transforming the eigenvectors                 ... done (   0.0 sec)
Now organizing SCF variables                       ... done
                      ------------------
                      INITIAL GUESS DONE (   0.6 sec)
                      ------------------
             **** ENERGY FILE WAS UPDATED (HFE_347pcf2_gauche1.en.tmp) ****
Finished Guess after   0.7 sec
Maximum memory used throughout the entire GUESS-calculation: 25.4 MB

-------------------------------------------------------------------------------------------
                                      ORCA LEAN-SCF
                              memory conserving SCF solver
-------------------------------------------------------------------------------------------

----------------------------------------D-I-I-S--------------------------------------------
Iteration    Energy (Eh)           Delta-E    RMSDP     MaxDP     DIISErr   Damp  Time(sec)
-------------------------------------------------------------------------------------------
               ***  Starting incremental Fock matrix formation  ***
    1    -928.0564907432366226     0.00e+00  1.31e-03  6.21e-02  2.29e-01  0.700   8.2
    2    -928.1664029554652871    -1.10e-01  7.39e-04  2.90e-02  8.97e-02  0.700   3.6
                               ***Turning on AO-DIIS***
    3    -928.2027390846889148    -3.63e-02  2.71e-04  1.16e-02  2.62e-02  0.700   3.5
    4    -928.2273019642703957    -2.46e-02  4.95e-04  1.42e-02  1.27e-02  0.000   3.3
                              *** Initializing SOSCF ***
---------------------------------------S-O-S-C-F--------------------------------------
Iteration    Energy (Eh)           Delta-E    RMSDP     MaxDP     MaxGrad    Time(sec)
--------------------------------------------------------------------------------------
    5    -928.2838899451322732    -5.66e-02  8.62e-05  3.30e-03  2.53e-03     3.4
               *** Restarting incremental Fock matrix formation ***
    6    -928.2839246426987074    -3.47e-05  6.80e-05  6.06e-03  2.16e-04     8.1
    7    -928.2839240388044573     6.04e-07  1.76e-05  1.15e-03  2.79e-04     5.9
    8    -928.2839306037955112    -6.56e-06  1.03e-05  8.40e-04  5.14e-05     5.4
    9    -928.2839306270060433    -2.32e-08  1.86e-06  7.01e-05  3.89e-05     5.0
   10    -928.2839307061325371    -7.91e-08  1.84e-06  1.12e-04  9.50e-06     4.4
   11    -928.2839307138802951    -7.75e-09  1.16e-06  1.27e-04  6.49e-06     4.2
                 **** Energy Check signals convergence ****

               *****************************************************
               *                     SUCCESS                       *
               *           SCF CONVERGED AFTER  11 CYCLES          *
               *****************************************************

Recomputing exchange energy using gridx3       ... done (   14.213 sec)
Old exchange energy                            :    -20.085583060 Eh
New exchange energy                            :    -20.085622744 Eh
Exchange energy change after final integration :     -0.000039685 Eh
Total energy after final integration           :   -928.283970399 Eh
             **** ENERGY FILE WAS UPDATED (HFE_347pcf2_gauche1.en.tmp) ****

----------------
TOTAL SCF ENERGY
----------------

Total Energy       :       -928.28397039861602 Eh          -25259.89102 eV

Components:
Nuclear Repulsion  :        847.81418092151500 Eh           23070.19673 eV
Electronic Energy  :      -1776.09811163550739 Eh          -48330.08667 eV
One Electron Energy:      -2972.67005944906305 Eh          -80890.46471 eV
Two Electron Energy:       1196.57194781355565 Eh           32560.37804 eV

Virial components:
Potential Energy   :      -1854.18248100143774 Eh          -50454.87038 eV
Kinetic Energy     :        925.89851060282183 Eh           25194.97936 eV
Virial Ratio       :          2.00257637286212

DFT components:
N(Alpha)           :       48.999825744701 electrons
N(Beta)            :       48.999825744701 electrons
N(Total)           :       97.999651489402 electrons
E(X)               :      -80.037033156801 Eh       
E(C)               :       -4.261112272951 Eh       
E(XC)              :      -84.298145429752 Eh       

---------------
SCF CONVERGENCE
---------------

  Last Energy change         ...    7.7478e-09  Tolerance :   1.0000e-08
  Last MAX-Density change    ...    1.2717e-04  Tolerance :   1.0000e-07
  Last RMS-Density change    ...    1.1583e-06  Tolerance :   5.0000e-09
  Last DIIS Error            ...    2.5325e-03  Tolerance :   5.0000e-07
  Last Orbital Gradient      ...    6.4864e-06  Tolerance :   1.0000e-05
  Last Orbital Rotation      ...    5.4701e-06  Tolerance :   1.0000e-05


----------------
ORBITAL ENERGIES
----------------

  NO   OCC          E(Eh)            E(eV) 
   0   2.0000     -24.741158      -673.2411 
   1   2.0000     -24.740165      -673.2141 
   2   2.0000     -24.736196      -673.1061 
   3   2.0000     -24.732080      -672.9941 
   4   2.0000     -24.729498      -672.9239 
   5   2.0000     -24.726782      -672.8499 
   6   2.0000     -24.723098      -672.7497 
   7   2.0000     -19.207789      -522.6705 
   8   2.0000     -10.453333      -284.4496 
   9   2.0000     -10.439574      -284.0752 
  10   2.0000     -10.380863      -282.4776 
  11   2.0000     -10.289946      -280.0037 
  12   2.0000      -1.338296       -36.4169 
  13   2.0000      -1.323177       -36.0055 
  14   2.0000      -1.295035       -35.2397 
  15   2.0000      -1.254175       -34.1278 
  16   2.0000      -1.253548       -34.1108 
  17   2.0000      -1.248051       -33.9612 
  18   2.0000      -1.238040       -33.6888 
  19   2.0000      -1.113648       -30.3039 
  20   2.0000      -0.837324       -22.7847 
  21   2.0000      -0.799539       -21.7566 
  22   2.0000      -0.715738       -19.4762 
  23   2.0000      -0.684638       -18.6300 
  24   2.0000      -0.638857       -17.3842 
  25   2.0000      -0.630936       -17.1686 
  26   2.0000      -0.627851       -17.0847 
  27   2.0000      -0.622211       -16.9312 
  28   2.0000      -0.607650       -16.5350 
  29   2.0000      -0.586962       -15.9720 
  30   2.0000      -0.580784       -15.8039 
  31   2.0000      -0.576298       -15.6819 
  32   2.0000      -0.521891       -14.2014 
  33   2.0000      -0.498689       -13.5700 
  34   2.0000      -0.494623       -13.4594 
  35   2.0000      -0.492429       -13.3997 
  36   2.0000      -0.482350       -13.1254 
  37   2.0000      -0.476813       -12.9748 
  38   2.0000      -0.464087       -12.6284 
  39   2.0000      -0.457642       -12.4531 
  40   2.0000      -0.455932       -12.4065 
  41   2.0000      -0.450238       -12.2516 
  42   2.0000      -0.442866       -12.0510 
  43   2.0000      -0.439324       -11.9546 
  44   2.0000      -0.436046       -11.8654 
  45   2.0000      -0.435641       -11.8544 
  46   2.0000      -0.417308       -11.3555 
  47   2.0000      -0.384199       -10.4546 
  48   2.0000      -0.348714        -9.4890 
  49   0.0000      -0.016515        -0.4494 
  50   0.0000       0.004109         0.1118 
  51   0.0000       0.014140         0.3848 
  52   0.0000       0.016574         0.4510 
  53   0.0000       0.033158         0.9023 
  54   0.0000       0.049001         1.3334 
  55   0.0000       0.055569         1.5121 
  56   0.0000       0.063822         1.7367 
  57   0.0000       0.071246         1.9387 
  58   0.0000       0.076697         2.0870 
  59   0.0000       0.078157         2.1268 
*Only the first 10 virtual orbitals were printed.

                    ********************************
                    * MULLIKEN POPULATION ANALYSIS *
                    ********************************

-----------------------
MULLIKEN ATOMIC CHARGES
-----------------------
   0 F :   -0.315656
   1 F :   -0.317590
   2 F :   -0.306949
   3 F :   -0.276384
   4 F :   -0.305905
   5 F :   -0.311397
   6 F :   -0.301607
   7 O :   -0.435915
   8 C :    0.796868
   9 C :   -0.130870
  10 C :    0.523030
  11 C :    0.931038
  12 H :    0.171518
  13 H :    0.141321
  14 H :    0.138497
Sum of atomic charges:    0.0000000

--------------------------------
MULLIKEN REDUCED ORBITAL CHARGES
--------------------------------
  0 F s       :     4.029133  s :     4.029133
      pz      :     1.637475  p :     5.270993
      px      :     1.768160
      py      :     1.865358
      dz2     :     0.003769  d :     0.015530
      dxz     :     0.005611
      dyz     :     0.003166
      dx2y2   :     0.001434
      dxy     :     0.001551

  1 F s       :     4.016250  s :     4.016250
      pz      :     1.707779  p :     5.285880
      px      :     1.906187
      py      :     1.671914
      dz2     :     0.002660  d :     0.015460
      dxz     :     0.001466
      dyz     :     0.006568
      dx2y2   :     0.002858
      dxy     :     0.001908

  2 F s       :     4.013856  s :     4.013856
      pz      :     1.890895  p :     5.277517
      px      :     1.480201
      py      :     1.906421
      dz2     :     0.001990  d :     0.015575
      dxz     :     0.004190
      dyz     :     0.000301
      dx2y2   :     0.005827
      dxy     :     0.003267

  3 F s       :     3.988923  s :     3.988923
      pz      :     1.683211  p :     5.271808
      px      :     1.902378
      py      :     1.686220
      dz2     :     0.003363  d :     0.015653
      dxz     :     0.001589
      dyz     :     0.006476
      dx2y2   :     0.002677
      dxy     :     0.001549

  4 F s       :     4.009399  s :     4.009399
      pz      :     1.842239  p :     5.281359
      px      :     1.849054
      py      :     1.590065
      dz2     :     0.001878  d :     0.015147
      dxz     :     0.001230
      dyz     :     0.004088
      dx2y2   :     0.004089
      dxy     :     0.003863

  5 F s       :     4.018293  s :     4.018293
      pz      :     1.679339  p :     5.277945
      px      :     1.717482
      py      :     1.881123
      dz2     :     0.003220  d :     0.015159
      dxz     :     0.005890
      dyz     :     0.002148
      dx2y2   :     0.001962
      dxy     :     0.001938

  6 F s       :     4.008770  s :     4.008770
      pz      :     1.678479  p :     5.277626
      px      :     1.900226
      py      :     1.698921
      dz2     :     0.002796  d :     0.015211
      dxz     :     0.001850
      dyz     :     0.006680
      dx2y2   :     0.002217
      dxy     :     0.001669

  7 O s       :     3.881819  s :     3.881819
      pz      :     1.482449  p :     4.517551
      px      :     1.246479
      py      :     1.788623
      dz2     :     0.008755  d :     0.036545
      dxz     :     0.010861
      dyz     :     0.005460
      dx2y2   :     0.007123
      dxy     :     0.004347

  8 C s       :     2.909559  s :     2.909559
      pz      :     0.529695  p :     1.938026
      px      :     0.645043
      py      :     0.763288
      dz2     :     0.077851  d :     0.355546
      dxz     :     0.070225
      dyz     :     0.061526
      dx2y2   :     0.065205
      dxy     :     0.080739

  9 C s       :     3.255118  s :     3.255118
      pz      :     0.874489  p :     2.753319
      px      :     0.844883
      py      :     1.033947
      dz2     :     0.027302  d :     0.122433
      dxz     :     0.020785
      dyz     :     0.029293
      dx2y2   :     0.028967
      dxy     :     0.016086

 10 C s       :     2.955410  s :     2.955410
      pz      :     0.824048  p :     2.289813
      px      :     0.651841
      py      :     0.813924
      dz2     :     0.046579  d :     0.231748
      dxz     :     0.056145
      dyz     :     0.026718
      dx2y2   :     0.039478
      dxy     :     0.062828

 11 C s       :     2.764164  s :     2.764164
      pz      :     0.555305  p :     1.946050
      px      :     0.812850
      py      :     0.577895
      dz2     :     0.081769  d :     0.358747
      dxz     :     0.062069
      dyz     :     0.070465
      dx2y2   :     0.069817
      dxy     :     0.074627

 12 H s       :     0.803960  s :     0.803960
      pz      :     0.010871  p :     0.024521
      px      :     0.003587
      py      :     0.010063

 13 H s       :     0.833740  s :     0.833740
      pz      :     0.006142  p :     0.024939
      px      :     0.004646
      py      :     0.014151

 14 H s       :     0.838830  s :     0.838830
      pz      :     0.012794  p :     0.022673
      px      :     0.005035
      py      :     0.004844



                     *******************************
                     * LOEWDIN POPULATION ANALYSIS *
                     *******************************

----------------------
LOEWDIN ATOMIC CHARGES
----------------------
   0 F :    0.107308
   1 F :    0.079798
   2 F :    0.052190
   3 F :    0.060137
   4 F :    0.084397
   5 F :    0.079343
   6 F :    0.087727
   7 O :    0.091985
   8 C :   -0.371274
   9 C :   -0.112793
  10 C :   -0.200730
  11 C :   -0.385612
  12 H :    0.145844
  13 H :    0.135989
  14 H :    0.145693

-------------------------------
LOEWDIN REDUCED ORBITAL CHARGES
-------------------------------
  0 F s       :     3.616738  s :     3.616738
      pz      :     1.660793  p :     5.248333
      px      :     1.762879
      py      :     1.824662
      dz2     :     0.006412  d :     0.027621
      dxz     :     0.010278
      dyz     :     0.005893
      dx2y2   :     0.002474
      dxy     :     0.002564

  1 F s       :     3.615219  s :     3.615219
      pz      :     1.721713  p :     5.277023
      px      :     1.858901
      py      :     1.696409
      dz2     :     0.004555  d :     0.027961
      dxz     :     0.002681
      dyz     :     0.012764
      dx2y2   :     0.005260
      dxy     :     0.002701

  2 F s       :     3.630913  s :     3.630913
      pz      :     1.851871  p :     5.288237
      px      :     1.577570
      py      :     1.858796
      dz2     :     0.003805  d :     0.028660
      dxz     :     0.007304
      dyz     :     0.000557
      dx2y2   :     0.011127
      dxy     :     0.005866

  3 F s       :     3.626895  s :     3.626895
      pz      :     1.722441  p :     5.284245
      px      :     1.852865
      py      :     1.708939
      dz2     :     0.006804  d :     0.028723
      dxz     :     0.002401
      dyz     :     0.012452
      dx2y2   :     0.004819
      dxy     :     0.002248

  4 F s       :     3.620152  s :     3.620152
      pz      :     1.812064  p :     5.267863
      px      :     1.821691
      py      :     1.634108
      dz2     :     0.002776  d :     0.027588
      dxz     :     0.002296
      dyz     :     0.007513
      dx2y2   :     0.007582
      dxy     :     0.007421

  5 F s       :     3.623420  s :     3.623420
      pz      :     1.698720  p :     5.269878
      px      :     1.733298
      py      :     1.837860
      dz2     :     0.005649  d :     0.027360
      dxz     :     0.011552
      dyz     :     0.003842
      dx2y2   :     0.003339
      dxy     :     0.002978

  6 F s       :     3.619285  s :     3.619285
      pz      :     1.700047  p :     5.265323
      px      :     1.855414
      py      :     1.709861
      dz2     :     0.004269  d :     0.027666
      dxz     :     0.003435
      dyz     :     0.012903
      dx2y2   :     0.004102
      dxy     :     0.002956

  7 O s       :     3.288938  s :     3.288938
      pz      :     1.535084  p :     4.528161
      px      :     1.296634
      py      :     1.696442
      dz2     :     0.018923  d :     0.090916
      dxz     :     0.026545
      dyz     :     0.011036
      dx2y2   :     0.021619
      dxy     :     0.012792

  8 C s       :     2.655027  s :     2.655027
      pz      :     0.802177  p :     2.592922
      px      :     0.860831
      py      :     0.929913
      dz2     :     0.210818  d :     1.123325
      dxz     :     0.241766
      dyz     :     0.252910
      dx2y2   :     0.223996
      dxy     :     0.193835

  9 C s       :     2.707497  s :     2.707497
      pz      :     0.928478  p :     2.906700
      px      :     0.950446
      py      :     1.027776
      dz2     :     0.098579  d :     0.498596
      dxz     :     0.109678
      dyz     :     0.128590
      dx2y2   :     0.102033
      dxy     :     0.059716

 10 C s       :     2.683537  s :     2.683537
      pz      :     0.907188  p :     2.654376
      px      :     0.822814
      py      :     0.924374
      dz2     :     0.151943  d :     0.862817
      dxz     :     0.184954
      dyz     :     0.166708
      dx2y2   :     0.192600
      dxy     :     0.166612

 11 C s       :     2.654630  s :     2.654630
      pz      :     0.798382  p :     2.554252
      px      :     0.972610
      py      :     0.783260
      dz2     :     0.214957  d :     1.176729
      dxz     :     0.231083
      dyz     :     0.286272
      dx2y2   :     0.243136
      dxy     :     0.201281

 12 H s       :     0.786336  s :     0.786336
      pz      :     0.027764  p :     0.067820
      px      :     0.011165
      py      :     0.028891

 13 H s       :     0.795649  s :     0.795649
      pz      :     0.015534  p :     0.068362
      px      :     0.013407
      py      :     0.039421

 14 H s       :     0.791125  s :     0.791125
      pz      :     0.033954  p :     0.063181
      px      :     0.015547
      py      :     0.013680



                      *****************************
                      * MAYER POPULATION ANALYSIS *
                      *****************************

  NA   - Mulliken gross atomic population
  ZA   - Total nuclear charge
  QA   - Mulliken gross atomic charge
  VA   - Mayer's total valence
  BVA  - Mayer's bonded valence
  FA   - Mayer's free valence

  ATOM       NA         ZA         QA         VA         BVA        FA
  0 F      9.3157     9.0000    -0.3157     1.0745     1.0745    -0.0000
  1 F      9.3176     9.0000    -0.3176     1.0608     1.0608    -0.0000
  2 F      9.3069     9.0000    -0.3069     0.9993     0.9993     0.0000
  3 F      9.2764     9.0000    -0.2764     1.0528     1.0528    -0.0000
  4 F      9.3059     9.0000    -0.3059     1.1015     1.1015    -0.0000
  5 F      9.3114     9.0000    -0.3114     1.0367     1.0367    -0.0000
  6 F      9.3016     9.0000    -0.3016     1.1023     1.1023     0.0000
  7 O      8.4359     8.0000    -0.4359     2.1399     2.1399     0.0000
  8 C      5.2031     6.0000     0.7969     3.9848     3.9848    -0.0000
  9 C      6.1309     6.0000    -0.1309     3.8731     3.8731     0.0000
 10 C      5.4770     6.0000     0.5230     3.7756     3.7756    -0.0000
 11 C      5.0690     6.0000     0.9310     3.8988     3.8988    -0.0000
 12 H      0.8285     1.0000     0.1715     0.9328     0.9328     0.0000
 13 H      0.8587     1.0000     0.1413     0.9371     0.9371    -0.0000
 14 H      0.8615     1.0000     0.1385     0.9431     0.9431     0.0000

  Mayer bond orders larger than 0.100000
B(  0-F ,  7-O ) :   0.1211 B(  0-F ,  8-C ) :   0.9082 B(  1-F ,  8-C ) :   1.0264 
B(  1-F , 10-C ) :  -0.1128 B(  2-F , 10-C ) :   0.9476 B(  3-F , 10-C ) :   1.0485 
B(  4-F , 11-C ) :   0.9862 B(  5-F , 11-C ) :   0.9302 B(  6-F , 11-C ) :   0.9721 
B(  7-O ,  8-C ) :   1.0843 B(  7-O ,  9-C ) :   0.9924 B(  7-O , 11-C ) :  -0.1056 
B(  8-C , 10-C ) :   1.1008 B(  9-C , 11-C ) :   1.1005 B(  9-C , 12-H ) :   0.9440 
B(  9-C , 13-H ) :   0.9671 B( 10-C , 14-H ) :   0.9721 

-------
TIMINGS
-------

Total SCF time: 0 days 0 hours 1 min 12 sec 

Total time                  ....      72.941 sec
Sum of individual times     ....      69.127 sec  ( 94.8%)

SCF preparation             ....       0.081 sec  (  0.1%)
Fock matrix formation       ....      68.745 sec  ( 94.2%)
  Startup                   ....       0.006 sec  (  0.0% of F)
  Split-RI-J                ....       4.971 sec  (  7.2% of F)
  Chain of spheres X        ....      59.108 sec  ( 86.0% of F)
  XC integration            ....       8.298 sec  ( 12.1% of F)
    XC Preparation          ....       0.000 sec  (  0.0% of XC)
    Basis function eval.    ....       2.132 sec  ( 25.7% of XC)
    Density eval.           ....       2.149 sec  ( 25.9% of XC)
    XC-Functional eval.     ....       0.229 sec  (  2.8% of XC)
    XC-Potential eval.      ....       3.509 sec  ( 42.3% of XC)
Diagonalization             ....       0.000 sec  (  0.0%)
Density matrix formation    ....       0.034 sec  (  0.0%)
Total Energy calculation    ....       0.005 sec  (  0.0%)
Population analysis         ....       0.011 sec  (  0.0%)
Orbital Transformation      ....       0.035 sec  (  0.0%)
Orbital Orthonormalization  ....       0.000 sec  (  0.0%)
DIIS solution               ....       0.117 sec  (  0.2%)
SOSCF solution              ....       0.101 sec  (  0.1%)
Finished LeanSCF after  73.0 sec

Maximum memory used throughout the entire LEANSCF-calculation: 42.8 MB

------------------------------------------------------------------------------
                         ORCA PROPERTY INTEGRAL CALCULATIONS
------------------------------------------------------------------------------

GBWName                                   ... HFE_347pcf2_gauche1.gbw
Number of atoms                           ...     15
Number of basis functions                 ...    342
Max core memory                           ...   4096 MB

Dipole integrals                          ... YES
Quadrupole integrals                      ...  NO
Linear momentum integrals                 ...  NO
Angular momentum integrals                ...  NO
Higher moments length integrals           ...  NO
Higher moments velocity integrals         ...  NO
Kinetic energy integrals                  ...  NO
GIAO right hand sides                     ...  NO
GIAO dipole derivative integrals          ...  NO
SOC integrals                             ...  NO
EPR diamagnetic integrals (GIAO)          ...  NO
EPR gauge integrals                       ...  NO
Field gradient integrals                  ...  NO (   0 nuclei)
Spin-dipole/Fermi contact integrals       ...  NO (   0 nuclei)
Contact density integrals                 ...  NO (   0 nuclei)
Nucleus-orbit integrals                   ...  NO (   0 nuclei)
Geometric perturbations                   ...  NO (  15 nuclei)

Choice of electric origin   ... Center of mass
Position of electric origin ... (  0.0036, -0.0093, -0.0132) 
Choice of magnetic origin   ... GIAO
Position of magnetic origin ... (  0.0000,  0.0000,  0.0000) 

Calculating integrals                     ... Electric Dipole (Length)     done (  0.0 sec)

Property integrals calculated in   0.0 sec

Maximum memory used throughout the entire PROPINT-calculation: 26.2 MB

-------------------------   --------------------
FINAL SINGLE POINT ENERGY      -928.283970398616
-------------------------   --------------------

------------------------------------------------------------------------------
                         ORCA SCF GRADIENT CALCULATION
------------------------------------------------------------------------------

Nuc. rep. gradient        (SHARK) ... done (  0.0 sec)
HCore & Overlap gradient  (SHARK) ... done (  0.2 sec)
Split-RIJ-J gradient      (SHARK) ... done (  1.8 sec)
COSX-gradient                     ... done ( 37.4 sec)
XC gradient                       ... done (  4.3 sec)

------------------
CARTESIAN GRADIENT
------------------

   1   F   :    0.016014338    0.004310371   -0.010738065
   2   F   :   -0.002449372    0.000835498   -0.001583159
   3   F   :   -0.004905983   -0.005156694   -0.001616284
   4   F   :    0.005798094   -0.000461446    0.001482274
   5   F   :    0.000968069    0.005148956   -0.001775359
   6   F   :   -0.006508548   -0.000362353    0.001809269
   7   F   :    0.000974440   -0.003223410   -0.005279640
   8   O   :   -0.027579946   -0.004527041   -0.000669652
   9   C   :    0.026437509   -0.009314464    0.020215429
  10   C   :   -0.001581992    0.000814870   -0.010197790
  11   C   :   -0.023431611    0.020797898   -0.007857193
  12   C   :    0.007328819   -0.007736598    0.013889572
  13   H   :    0.004035122    0.001755952    0.000910542
  14   H   :    0.001503877    0.000159829   -0.000039008
  15   H   :    0.003397183   -0.003041367    0.001449064

Difference to translation invariance:
           :   -0.0000000000    0.0000000000   -0.0000000000

Difference to rotation invariance:
           :    0.0002665548    0.0004554294    0.0000933791

Norm of the Cartesian gradient     ...    0.0638963330
RMS gradient                       ...    0.0095251029
MAX gradient                       ...    0.0275799458

-------
TIMINGS
-------

Total SCF gradient time     ....       43.804 sec

Densities                   ....       0.002 sec  (  0.0%)
One electron gradient       ....       0.242 sec  (  0.6%)
RI-J Coulomb gradient       ....       1.793 sec  (  4.1%)
COSX gradient               ....      37.424 sec  ( 85.4%)
XC gradient                 ....       4.342 sec  (  9.9%)

Maximum memory used throughout the entire SCFGRAD-calculation: 50.2 MB
------------------------------------------------------------------------------
                         ORCA GEOMETRY RELAXATION STEP
------------------------------------------------------------------------------

Reading the OPT-File                    .... done
Getting information on internals        .... done
Copying old internal coords+grads       .... done
Making the new internal coordinates     .... (2022 redundants) done
Validating the new internal coordinates .... (2022 redundants) done
Calculating the B-matrix                .... done
Calculating the G,G- and P matrices     .... done
Transforming gradient to internals      .... done
Projecting the internal gradient        .... done
Number of atoms                         ....  15
Number of internal coordinates          ....  57
Current Energy                          ....  -928.283970399 Eh
Current gradient norm                   ....     0.063896333 Eh/bohr
Maximum allowed component of the step   ....  0.300
Current trust radius                    ....  0.300
Evaluating the initial hessian          ....  (Almloef) done
Projecting the Hessian                  .... done
Forming the augmented Hessian           .... done
Diagonalizing the augmented Hessian     .... done
Last element of RFO vector              ....  0.966202546
Lowest eigenvalues of augmented Hessian:
 -0.011126780  0.013130323  0.013394497  0.019715223  0.020750973
Length of the computed step             ....  0.266801302
The final length of the internal step   ....  0.266801302
Converting the step to Cartesian space:
 Initial RMS(Int)=    0.0353386958
Transforming coordinates:
 Iter   0:  RMS(Cart)=    0.1524691908 RMS(Int)=    0.8244690229
 Iter   5:  RMS(Cart)=    0.0000015704 RMS(Int)=    0.0000010949
done
Storing new coordinates                 .... done

                                .--------------------.
          ----------------------|Geometry convergence|-------------------------
          Item                value                   Tolerance       Converged
          ---------------------------------------------------------------------
          RMS gradient        0.0083009267            0.0001000000      NO
          MAX gradient        0.0279941807            0.0003000000      NO
          RMS step            0.0353386958            0.0020000000      NO
          MAX step            0.1132605550            0.0040000000      NO
          -------------------------------------------------------------------------
          ........................................................
          Max(Bonds)      0.0247      Max(Angles)    4.22
          Max(Dihed)        6.49      Max(Improp)    0.00
          ---------------------------------------------------------------------

The optimization has not yet converged - more geometry cycles are needed


    ---------------------------------------------------------------------------
                         Redundant Internal Coordinates
                            (Angstroem and degrees)

        Definition                    Value    dE/dq     Step     New-Value
    ----------------------------------------------------------------------------
     1. B(C   8,F   1)                1.3540 -0.000688  0.0006    1.3546   
     2. B(C   8,O   7)                1.4217  0.021168 -0.0220    1.3997   
     3. B(C   8,F   0)                1.3550  0.018357 -0.0161    1.3389   
     4. B(C   9,O   7)                1.4208 -0.003559  0.0037    1.4244   
     5. B(C  10,F   3)                1.3555 -0.000968  0.0009    1.3563   
     6. B(C  10,C   8)                1.5053 -0.019617  0.0247    1.5300   
     7. B(C  10,F   2)                1.3560 -0.005682  0.0050    1.3610   
     8. B(C  11,F   6)                1.3498  0.005970 -0.0051    1.3446   
     9. B(C  11,F   5)                1.3498  0.005457 -0.0047    1.3451   
    10. B(C  11,C   9)                1.5066 -0.004828  0.0061    1.5128   
    11. B(C  11,F   4)                1.3510  0.004802 -0.0042    1.3468   
    12. B(H  12,C   9)                1.0950  0.002008 -0.0029    1.0921   
    13. B(H  13,C   9)                1.0918  0.000232 -0.0003    1.0915   
    14. B(H  14,C  10)                1.0900  0.000691 -0.0010    1.0891   
    15. A(C   8,O   7,C   9)          112.55 -0.027994    3.93    116.49   
    16. A(F   1,C   8,C  10)          110.06  0.008029   -0.56    109.50   
    17. A(F   1,C   8,O   7)          109.61  0.002262    0.50    110.11   
    18. A(O   7,C   8,C  10)          110.34 -0.026911    4.22    114.56   
    19. A(F   0,C   8,C  10)          109.67  0.002199   -0.68    108.99   
    20. A(F   0,C   8,F   1)          107.97 -0.002647   -0.37    107.60   
    21. A(F   0,C   8,O   7)          109.14  0.017765   -3.25    105.89   
    22. A(H  12,C   9,H  13)          109.44 -0.000185    0.41    109.85   
    23. A(C  11,C   9,H  13)          106.23 -0.002349    0.33    106.56   
    24. A(O   7,C   9,H  13)          111.94 -0.003183    0.70    112.64   
    25. A(C  11,C   9,H  12)          109.94  0.002873   -0.89    109.04   
    26. A(O   7,C   9,H  12)          110.13 -0.005399    0.83    110.97   
    27. A(O   7,C   9,C  11)          109.08  0.008560   -1.44    107.63   
    28. A(F   3,C  10,H  14)          109.04 -0.002221    0.13    109.17   
    29. A(F   2,C  10,H  14)          106.07 -0.005799    0.71    106.78   
    30. A(F   2,C  10,F   3)          106.81 -0.006932    1.44    108.25   
    31. A(F   3,C  10,C   8)          109.52  0.004372   -0.48    109.04   
    32. A(C   8,C  10,H  14)          115.35  0.004969   -1.09    114.25   
    33. A(F   2,C  10,C   8)          109.69  0.004353   -0.47    109.22   
    34. A(F   4,C  11,C   9)          110.61 -0.008407    1.17    111.78   
    35. A(F   5,C  11,F   6)          108.10  0.002757   -0.35    107.75   
    36. A(F   4,C  11,F   6)          107.71 -0.001948    0.28    107.99   
    37. A(F   4,C  11,F   5)          107.74 -0.000959    0.09    107.83   
    38. A(F   6,C  11,C   9)          111.26 -0.002321    0.35    111.61   
    39. A(F   5,C  11,C   9)          111.27  0.010759   -1.52    109.75   
    40. D(F   1,C   8,O   7,C   9)    -61.36  0.001791    4.14    -57.21   
    41. D(F   0,C   8,O   7,C   9)   -179.42 -0.006781    6.21   -173.21   
    42. D(C  10,C   8,O   7,C   9)     60.00 -0.004045    6.49     66.49   
    43. D(H  13,C   9,O   7,C   8)    -62.07  0.003834   -3.45    -65.52   
    44. D(H  12,C   9,O   7,C   8)     59.92 -0.002381   -1.86     58.06   
    45. D(C  11,C   9,O   7,C   8)   -179.34  0.003223   -3.36   -182.70   
    46. D(F   2,C  10,C   8,F   0)     58.29 -0.002002   -1.13     57.15   
    47. D(F   3,C  10,C   8,O   7)     61.63  0.007772   -4.12     57.51   
    48. D(F   3,C  10,C   8,F   1)   -177.28 -0.001651   -1.12   -178.39   
    49. D(F   3,C  10,C   8,F   0)    -58.63  0.001323   -2.32    -60.96   
    50. D(F   2,C  10,C   8,O   7)    178.55  0.004448   -2.93    175.61   
    51. D(F   2,C  10,C   8,F   1)    -60.36 -0.004975    0.08    -60.29   
    52. D(F   4,C  11,C   9,H  13)    179.61  0.000338   -0.21    179.41   
    53. D(F   4,C  11,C   9,H  12)     61.29  0.000382   -0.40     60.89   
    54. D(F   4,C  11,C   9,O   7)    -59.56 -0.000137    0.03    -59.53   
    55. D(F   5,C  11,C   9,H  13)     59.90  0.000066   -0.10     59.80   
    56. D(F   5,C  11,C   9,H  12)    -58.42  0.000110   -0.29    -58.72   
    57. D(F   5,C  11,C   9,O   7)   -179.28 -0.000409    0.14   -179.13   
    ----------------------------------------------------------------------------

Geometry step timings:
Preparation and reading OPT file:      0.000 s ( 1.313 %)
Internal coordinates            :      0.000 s (10.145 %)
B/P matrices and projection     :      0.001 s (19.814 %)
Hessian update/contruction      :      0.001 s (19.067 %)
Making the step                 :      0.001 s (21.626 %)
Converting the step to Cartesian:      0.000 s ( 2.944 %)
Storing new data                :      0.000 s ( 1.517 %)
Checking convergence            :      0.000 s ( 9.760 %)
Final printing                  :      0.001 s (13.791 %)
Total time                      :      0.004 s

Time for energy+gradient        :    119.215 s
Time for complete geometry iter :    119.289 s

         *************************************************************
         *                GEOMETRY OPTIMIZATION CYCLE   2            *
         *************************************************************
---------------------------------
CARTESIAN COORDINATES (ANGSTROEM)
---------------------------------
  F      1.896443    0.959442   -1.189137
  F      1.391226    1.488743    0.857320
  F      3.299467   -0.475708    0.624948
  F      1.900630   -1.699704   -0.555448
  F     -2.719946    1.103098   -0.530783
  F     -3.236024   -0.348823    1.004994
  F     -2.438501   -1.024026   -0.899594
  O     -0.060851    0.342550   -0.435805
  C      1.282088    0.520374   -0.083553
  C     -0.957467    0.017448    0.622231
  C      1.983822   -0.747625    0.406989
  C     -2.349410   -0.061544    0.035126
  H     -0.941014    0.785959    1.397966
  H     -0.750050   -0.958988    1.063644
  H      1.586687   -1.146296    1.339402

----------------------------
CARTESIAN COORDINATES (A.U.)
----------------------------
  NO LB      ZA    FRAG     MASS         X           Y           Z
   0 F     9.0000    0    18.998    3.583757    1.813083   -2.247144
   1 F     9.0000    0    18.998    2.629036    2.813317    1.620101
   2 F     9.0000    0    18.998    6.235088   -0.898958    1.180981
   3 F     9.0000    0    18.998    3.591671   -3.211976   -1.049644
   4 F     9.0000    0    18.998   -5.139953    2.084552   -1.003035
   5 F     9.0000    0    18.998   -6.115200   -0.659180    1.899163
   6 F     9.0000    0    18.998   -4.608099   -1.935129   -1.699985
   7 O     8.0000    0    15.999   -0.114992    0.647326   -0.823552
   8 C     6.0000    0    12.011    2.422796    0.983364   -0.157892
   9 C     6.0000    0    12.011   -1.809351    0.032972    1.175845
  10 C     6.0000    0    12.011    3.748881   -1.412806    0.769098
  11 C     6.0000    0    12.011   -4.439741   -0.116301    0.066378
  12 H     1.0000    0     1.008   -1.778258    1.485248    2.641773
  13 H     1.0000    0     1.008   -1.417390   -1.812224    2.009997
  14 H     1.0000    0     1.008    2.998405   -2.166186    2.531102

--------------------------------
INTERNAL COORDINATES (ANGSTROEM)
--------------------------------
 F      0   0   0     0.000000000000     0.00000000     0.00000000
 F      1   0   0     2.173336424443     0.00000000     0.00000000
 F      1   2   0     2.705372290106    67.56397594     0.00000000
 F      3   1   2     2.201872943013    66.79314757   113.74710131
 F      2   1   3     4.356293047190    84.13299030   227.84250577
 F      5   2   1     2.175550744247    93.32568565   124.55331130
 F      6   5   2     2.172417040788    60.09566453   270.70586159
 O      1   2   3     2.186106900447    62.36174062   108.55768112
 C      1   2   3     1.338853294036    36.45138009    70.56479376
 C      8   1   2     1.424447492441   152.11985853   336.56796941
 C      4   3   1     1.356341068490    35.94615601   289.91338283
 C      7   6   5     1.344622613545    36.13760800    37.54314092
 H     10   8   1     1.092083134061   110.94776182    49.55460055
 H     10   8   1     1.091464066151   112.64083501   285.95054378
 H     11   4   3     1.089058351355   109.15902259   244.13862972

---------------------------
INTERNAL COORDINATES (A.U.)
---------------------------
 F      0   0   0     0.000000000000     0.00000000     0.00000000
 F      1   0   0     4.107010639072     0.00000000     0.00000000
 F      1   2   0     5.112412718599    67.56397594     0.00000000
 F      3   1   2     4.160936843985    66.79314757   113.74710131
 F      2   1   3     8.232200818295    84.13299030   227.84250577
 F      5   2   1     4.111195097076    93.32568565   124.55331130
 F      6   5   2     4.105273255753    60.09566453   270.70586159
 O      1   2   3     4.131143341321    62.36174062   108.55768112
 C      1   2   3     2.530066059226    36.45138009    70.56479376
 C      8   1   2     2.691815652865   152.11985853   336.56796941
 C      4   3   1     2.563113163636    35.94615601   289.91338283
 C      7   6   5     2.540968493077    36.13760800    37.54314092
 H     10   8   1     2.063738038849   110.94776182    49.55460055
 H     10   8   1     2.062568170042   112.64083501   285.95054378
 H     11   4   3     2.058022027922   109.15902259   244.13862972

[...]
freq.     257.57  E(vib)   ...       0.34 
freq.     321.00  E(vib)   ...       0.28 
freq.     351.45  E(vib)   ...       0.26 
freq.     372.29  E(vib)   ...       0.25 
freq.     415.45  E(vib)   ...       0.22 
freq.     508.31  E(vib)   ...       0.16 
freq.     525.96  E(vib)   ...       0.16 
freq.     552.08  E(vib)   ...       0.14 
freq.     572.95  E(vib)   ...       0.13 
freq.     590.40  E(vib)   ...       0.13 
freq.     649.67  E(vib)   ...       0.11 
freq.     733.43  E(vib)   ...       0.08 
freq.     844.64  E(vib)   ...       0.06 
freq.     854.79  E(vib)   ...       0.05 
freq.     973.83  E(vib)   ...       0.04 
freq.    1072.04  E(vib)   ...       0.02 
freq.    1087.54  E(vib)   ...       0.02 
freq.    1110.60  E(vib)   ...       0.02 
freq.    1134.60  E(vib)   ...       0.02 
freq.    1150.00  E(vib)   ...       0.02 
freq.    1173.14  E(vib)   ...       0.02 
freq.    1200.81  E(vib)   ...       0.02 
freq.    1280.33  E(vib)   ...       0.01 
freq.    1289.02  E(vib)   ...       0.01 
freq.    1313.48  E(vib)   ...       0.01 
freq.    1363.68  E(vib)   ...       0.01 
freq.    1419.04  E(vib)   ...       0.01 
freq.    1442.39  E(vib)   ...       0.01 
freq.    1496.08  E(vib)   ...       0.01 
freq.    3047.53  E(vib)   ...       0.00 
freq.    3079.82  E(vib)   ...       0.00 
freq.    3111.90  E(vib)   ...       0.00 

------------
INNER ENERGY
------------

The inner energy is: U= E(el) + E(ZPE) + E(vib) + E(rot) + E(trans)
    E(el)   - is the total energy from the electronic structure calculation
              = E(kin-el) + E(nuc-el) + E(el-el) + E(nuc-nuc)
    E(ZPE)  - the the zero temperature vibrational energy from the frequency calculation
    E(vib)  - the the finite temperature correction to E(ZPE) due to population
              of excited vibrational states
    E(rot)  - is the rotational thermal energy
    E(trans)- is the translational thermal energy

Summary of contributions to the inner energy U:
Electronic energy                ...   -928.29175880 Eh
Zero point energy                ...      0.08216742 Eh      51.56 kcal/mol
Thermal vibrational correction   ...      0.00969395 Eh       6.08 kcal/mol
Thermal rotational correction    ...      0.00152006 Eh       0.95 kcal/mol
Thermal translational correction ...      0.00152006 Eh       0.95 kcal/mol
-----------------------------------------------------------------------
Total thermal energy                   -928.19685730 Eh


Summary of corrections to the electronic energy:
(perhaps to be used in another calculation)
Total thermal correction                  0.01273407 Eh       7.99 kcal/mol
Non-thermal (ZPE) correction              0.08216742 Eh      51.56 kcal/mol
-----------------------------------------------------------------------
Total correction                          0.09490150 Eh      59.55 kcal/mol


--------
ENTHALPY
--------

The enthalpy is H = U + kB*T
                kB is Boltzmann's constant
Total thermal energy              ...   -928.19685730 Eh 
Thermal Enthalpy correction       ...      0.00101341 Eh       0.64 kcal/mol
-----------------------------------------------------------------------
Total Enthalpy                    ...   -928.19584389 Eh


Note: Only C1 symmetry has been detected, increase convergence thresholds 
      if your molecule has a higher symmetry. Symmetry factor of 1.0 is   
      used for the rotational entropy correction. 
 

Note: Rotational entropy computed according to Herzberg 
Infrared and Raman Spectra, Chapter V,1, Van Nostrand Reinhold, 1945 
Point Group:  C1, Symmetry Number:   1  
Rotational constants in cm-1:     0.059812     0.015460     0.014548 

Vibrational entropy computed according to the QRRHO of S. Grimme
Chem.Eur.J. 2012 18 9955 using a reference frequency of 100.0 cm-1


-------
ENTROPY
-------

The entropy contributions are T*S = T*(S(el)+S(vib)+S(rot)+S(trans))
     S(el)   - electronic entropy
     S(vib)  - vibrational entropy
     S(rot)  - rotational entropy
     S(trans)- translational entropy
The entropies will be listed as multiplied by the temperature to get
units of energy

Electronic entropy                ...      0.00000000 Eh      0.00 kcal/mol
Vibrational entropy               ...      0.01767023 Eh     11.09 kcal/mol
Rotational entropy                ...      0.01599850 Eh     10.04 kcal/mol
Translational entropy             ...      0.02148743 Eh     13.48 kcal/mol
-----------------------------------------------------------------------
Final entropy term                ...      0.05515616 Eh     34.61 kcal/mol

In case the symmetry of your molecule has not been determined correctly
or in case you have a reason to use a different symmetry number we print 
out the resulting rotational entropy values for sn=1,12:

 non-linear molecules -----------------------------------
|  sn= 1 | S(rot)=       0.01599850 Eh     10.04 kcal/mol|
|  sn= 2 | S(rot)=       0.01529608 Eh      9.60 kcal/mol|
|  sn= 3 | S(rot)=       0.01488519 Eh      9.34 kcal/mol|
|  sn= 4 | S(rot)=       0.01459366 Eh      9.16 kcal/mol|
|  sn= 5 | S(rot)=       0.01436753 Eh      9.02 kcal/mol|
|  sn= 6 | S(rot)=       0.01418277 Eh      8.90 kcal/mol|
|  sn= 7 | S(rot)=       0.01402656 Eh      8.80 kcal/mol|
|  sn= 8 | S(rot)=       0.01389124 Eh      8.72 kcal/mol|
|  sn= 9 | S(rot)=       0.01377188 Eh      8.64 kcal/mol|
|  sn=10 | S(rot)=       0.01366511 Eh      8.57 kcal/mol|
|  sn=11 | S(rot)=       0.01356853 Eh      8.51 kcal/mol|
|  sn=12 | S(rot)=       0.01348035 Eh      8.46 kcal/mol|
 linear molecules ---------------------------------------
|  Dinfh | S(rot)=       0.01007468 Eh      6.32 kcal/mol|
|  Cinfv | S(rot)=       0.01077710 Eh      6.76 kcal/mol|
 --------------------------------------------------------


-------------------
GIBBS FREE ENERGY
-------------------

The Gibbs free energy is G = H - T*S

Total enthalpy                    ...   -928.19584389 Eh 
Total entropy correction          ...     -0.05515616 Eh    -34.61 kcal/mol
-----------------------------------------------------------------------
Final Gibbs free energy         ...   -928.25100005 Eh

For completeness - the Gibbs free energy minus the electronic energy
G-E(el)                           ...      0.04075875 Eh     25.58 kcal/mol


The first frequency considered to be a vibration is 6
The total number of vibrations considered is 39


--------------------------
THERMOCHEMISTRY AT 340.00K
--------------------------

Temperature         ...   340.00 K
Pressure            ...     1.00 atm
Total Mass          ...   200.05 AMU
Quasi RRHO          ...     True
Cut-Off Frequency   ...     1.00 cm^-1

Throughout the following assumptions are being made:
  (1) The electronic state is orbitally nondegenerate
  (2) There are no thermally accessible electronically excited states
  (3) Hindered rotations indicated by low frequency modes are not
      treated as such but are treated as vibrations and this may
      cause some error
  (4) All equations used are the standard statistical mechanics
      equations for an ideal gas
  (5) All vibrations are strictly harmonic

freq.      18.33  E(vib)   ...       0.65 
freq.      32.12  E(vib)   ...       0.63 
freq.      67.62  E(vib)   ...       0.58 
freq.      88.89  E(vib)   ...       0.56 
freq.     147.10  E(vib)   ...       0.49 
freq.     184.98  E(vib)   ...       0.45 
freq.     232.45  E(vib)   ...       0.40 
freq.     257.57  E(vib)   ...       0.37 
freq.     321.00  E(vib)   ...       0.32 
freq.     351.45  E(vib)   ...       0.29 
freq.     372.29  E(vib)   ...       0.28 
freq.     415.45  E(vib)   ...       0.25 
freq.     508.31  E(vib)   ...       0.19 
freq.     525.96  E(vib)   ...       0.18 
freq.     552.08  E(vib)   ...       0.17 
freq.     572.95  E(vib)   ...       0.16 
freq.     590.40  E(vib)   ...       0.15 
freq.     649.67  E(vib)   ...       0.13 
freq.     733.43  E(vib)   ...       0.10 
freq.     844.64  E(vib)   ...       0.07 
freq.     854.79  E(vib)   ...       0.07 
freq.     973.83  E(vib)   ...       0.05 
freq.    1072.04  E(vib)   ...       0.03 
freq.    1087.54  E(vib)   ...       0.03 
freq.    1110.60  E(vib)   ...       0.03 
freq.    1134.60  E(vib)   ...       0.03 
freq.    1150.00  E(vib)   ...       0.03 
freq.    1173.14  E(vib)   ...       0.02 
freq.    1200.81  E(vib)   ...       0.02 
freq.    1280.33  E(vib)   ...       0.02 
freq.    1289.02  E(vib)   ...       0.02 
freq.    1313.48  E(vib)   ...       0.01 
freq.    1363.68  E(vib)   ...       0.01 
freq.    1419.04  E(vib)   ...       0.01 
freq.    1442.39  E(vib)   ...       0.01 
freq.    1496.08  E(vib)   ...       0.01 
freq.    3047.53  E(vib)   ...       0.00 
freq.    3079.82  E(vib)   ...       0.00 
freq.    3111.90  E(vib)   ...       0.00 

------------
INNER ENERGY
------------

The inner energy is: U= E(el) + E(ZPE) + E(vib) + E(rot) + E(trans)
    E(el)   - is the total energy from the electronic structure calculation
              = E(kin-el) + E(nuc-el) + E(el-el) + E(nuc-nuc)
    E(ZPE)  - the the zero temperature vibrational energy from the frequency calculation
    E(vib)  - the the finite temperature correction to E(ZPE) due to population
              of excited vibrational states
    E(rot)  - is the rotational thermal energy
    E(trans)- is the translational thermal energy

Summary of contributions to the inner energy U:
Electronic energy                ...   -928.29175880 Eh
Zero point energy                ...      0.08216742 Eh      51.56 kcal/mol
Thermal vibrational correction   ...      0.01083306 Eh       6.80 kcal/mol
Thermal rotational correction    ...      0.00161507 Eh       1.01 kcal/mol
Thermal translational correction ...      0.00161507 Eh       1.01 kcal/mol
-----------------------------------------------------------------------
Total thermal energy                   -928.19552817 Eh


Summary of corrections to the electronic energy:
(perhaps to be used in another calculation)
Total thermal correction                  0.01406320 Eh       8.82 kcal/mol
Non-thermal (ZPE) correction              0.08216742 Eh      51.56 kcal/mol
-----------------------------------------------------------------------
Total correction                          0.09623062 Eh      60.39 kcal/mol


--------
ENTHALPY
--------

The enthalpy is H = U + kB*T
                kB is Boltzmann's constant
Total thermal energy              ...   -928.19552817 Eh 
Thermal Enthalpy correction       ...      0.00107674 Eh       0.68 kcal/mol
-----------------------------------------------------------------------
Total Enthalpy                    ...   -928.19445143 Eh


Note: Only C1 symmetry has been detected, increase convergence thresholds 
      if your molecule has a higher symmetry. Symmetry factor of 1.0 is   
      used for the rotational entropy correction. 
 

Note: Rotational entropy computed according to Herzberg 
Infrared and Raman Spectra, Chapter V,1, Van Nostrand Reinhold, 1945 
Point Group:  C1, Symmetry Number:   1  
Rotational constants in cm-1:     0.059812     0.015460     0.014548 

Vibrational entropy computed according to the QRRHO of S. Grimme
Chem.Eur.J. 2012 18 9955 using a reference frequency of 100.0 cm-1


-------
ENTROPY
-------

The entropy contributions are T*S = T*(S(el)+S(vib)+S(rot)+S(trans))
     S(el)   - electronic entropy
     S(vib)  - vibrational entropy
     S(rot)  - rotational entropy
     S(trans)- translational entropy
The entropies will be listed as multiplied by the temperature to get
units of energy

Electronic entropy                ...      0.00000000 Eh      0.00 kcal/mol
Vibrational entropy               ...      0.01982765 Eh     12.44 kcal/mol
Rotational entropy                ...      0.01709632 Eh     10.73 kcal/mol
Translational entropy             ...      0.02299358 Eh     14.43 kcal/mol
-----------------------------------------------------------------------
Final entropy term                ...      0.05991755 Eh     37.60 kcal/mol

In case the symmetry of your molecule has not been determined correctly
or in case you have a reason to use a different symmetry number we print 
out the resulting rotational entropy values for sn=1,12:

 non-linear molecules -----------------------------------
|  sn= 1 | S(rot)=       0.01709632 Eh     10.73 kcal/mol|
|  sn= 2 | S(rot)=       0.01635000 Eh     10.26 kcal/mol|
|  sn= 3 | S(rot)=       0.01591343 Eh      9.99 kcal/mol|
|  sn= 4 | S(rot)=       0.01560368 Eh      9.79 kcal/mol|
|  sn= 5 | S(rot)=       0.01536342 Eh      9.64 kcal/mol|
|  sn= 6 | S(rot)=       0.01516711 Eh      9.52 kcal/mol|
|  sn= 7 | S(rot)=       0.01500113 Eh      9.41 kcal/mol|
|  sn= 8 | S(rot)=       0.01485736 Eh      9.32 kcal/mol|
|  sn= 9 | S(rot)=       0.01473054 Eh      9.24 kcal/mol|
|  sn=10 | S(rot)=       0.01461710 Eh      9.17 kcal/mol|
|  sn=11 | S(rot)=       0.01451447 Eh      9.11 kcal/mol|
|  sn=12 | S(rot)=       0.01442079 Eh      9.05 kcal/mol|
 linear molecules ---------------------------------------
|  Dinfh | S(rot)=       0.01076962 Eh      6.76 kcal/mol|
|  Cinfv | S(rot)=       0.01151594 Eh      7.23 kcal/mol|
 --------------------------------------------------------


-------------------
GIBBS FREE ENERGY
-------------------

The Gibbs free energy is G = H - T*S

Total enthalpy                    ...   -928.19445143 Eh 
Total entropy correction          ...     -0.05991755 Eh    -37.60 kcal/mol
-----------------------------------------------------------------------
Final Gibbs free energy         ...   -928.25436899 Eh

For completeness - the Gibbs free energy minus the electronic energy
G-E(el)                           ...      0.03738981 Eh     23.46 kcal/mol


Maximum memory used throughout the entire PROP-calculation: 107.1 MB

--------------------------------
SUGGESTED CITATIONS FOR THIS RUN
--------------------------------

Below you find a list of papers that are relevant to this ORCA run
We neither can nor want to force you to cite these papers, but we appreciate if you do
You receive ORCA, which is the product of decades of hard work by many enthusiastic individuals, for free
The only thing we kindly ask in return is that you cite our papers,
We deeply appreciate it, if you show your appreciation for ORCA by not just citing the generic ORCA reference.

Please note that relegating all ORCA citations to the supporting information does *not* help us.
SI sections are not indexed - citations you put there will not count into any citation statistics
But we need these citations in order to attract the funding resources that allow us to do what we are doing

Therefore, if you are a happy ORCA user, please consider citing a few of the papers listed below in the main body of your paper

In addition to the list printed below, the program has created the file HFE_347pcf2_gauche1.bibtex that contains the list in bibtex format
You can import this file easily into all common literature databanks and citation aid programs

It goes without saying that in many instances, there are alternative algorithms to achieve similar
results as the ones you have gotten from ORCA. It is, of course, also the case that in some instances
ORCA just re-implements algorithms worked out by others. We are fully aware of that and we are also
fully appreciative of our colleagues work. Hence this citation list should not be read as indicating
that the listed papers, which are focused on our own work, are the only ones worth citing. It simply
meant to make it easier for users to cite ORCA specific papers. It is not a substitute for doing your
own literature research and citing the relevant literature in a scientifically appropriate manner.

List of essential papers. We consider these as the minimum necessary citations

  1. Neese, F.
     Software update: the ORCA program system, version 6.0
     WIRES Comput. Molec. Sci. 2025 15(1), e70019
     doi.org/10.1002/wcms.70019

List of papers to cite with high priority. The work reported in these papers was absolutely
necessary for this run to complete.
Our perspective: the developers of density functionals and basis sets usually get cited in chemistry papers
Good! But without the algorithms to do something with them, the functionals or basis sets would not do anything.
Hence, in our opinion, the algorithm design and method developments papers are equally worthy of getting cited

  1. Neese, F.
     An improvement of the resolution of the identity approximation for the formation of the Coulomb matrix
     J. Comp. Chem. 2003 24(14), 1740-1747
     doi.org/10.1002/jcc.10318
  2. Neese, F.; Wennmohs, F.; Hansen, A.; Becker, U.
     Efficient, approximate and parallel Hartree-Fock and hybrid DFT calculations. A 'chain-of-spheres' algorithm for the Hartree-Fock exchange
     Chem. Phys. 2009 356(1-3), 98-109
     doi.org/10.1016/j.chemphys.2008.10.036
  3. Bykov, D.; Petrenko, T.; Izsak, R.; Kossmann, S.; Becker, U.; Valeev, E.; Neese, F.
     Efficient implementation of the analytic second derivatives of Hartree-Fock and hybrid DFT energies: a detailed analysis of different approximations
     Molec. Phys. 2015 113 , 1961-1977
     doi.org/10.1080/00268976.2015.1025114
  4. Helmich-Paris, B.; de Souza, B.; Neese, F.; Izsák, R.
     An improved chain of spheres for exchange algorithm
     J. Chem. Phys. 2021 155(10), 104109
     doi.org/10.1063/5.0058766
  5. Neese, F.
     The SHARK Integral Generation and Digestion System
     J. Comp. Chem. 2022 44(3), 381
     doi.org/10.1002/jcc.26942

List of suggested additional citations. These are papers that are important in the 'surrounding' of 
of this run, or papers that preceded the highly important papers. If you like your results we are grateful for a citation.

  1. Izsak, R.; Neese, F.
     An overlap fitted chain of spheres exchange method
     J. Chem. Phys. 2011 135 , 144105
     doi.org/10.1063/1.3646921
  2. Izsak, R.; Hansen, A.; Neese, F.
     The resolution of identity and chain of spheres approximations for the LPNO-CCSD singles Fock term
     Molec. Phys. 2012 110 , 2413-2417
     doi.org/10.1080/00268976.2012.687466
  3. Neese, F.
     The ORCA program system
     WIRES Comput. Molec. Sci. 2012 2(1), 73-78
     doi.org/10.1002/wcms.81
  4. Izsak, R.; Neese, F.; Klopper, W.
     Robust fitting techniques in the chain of spheres approximation to the Fock exchange: The role of the complementary space
     J. Chem. Phys. 2013 139 , 
     doi.org/10.1063/1.4819264
  5. Neese, F.
     Software update: the ORCA program system, version 4.0
     WIRES Comput. Molec. Sci. 2018 8(1), 1-6
     doi.org/10.1002/wcms.1327
  6. Neese, F.; Wennmohs, F.; Becker, U.; Riplinger, C.
     The ORCA quantum chemistry program package
     J. Chem. Phys. 2020 152(22), 224108
     doi.org/10.1063/5.0004608
  7. Neese, F.
     Software update: The ORCA program system—Version 5.0
     WIRES Comput. Molec. Sci. 2022 12(1), e1606
     doi.org/10.1002/wcms.1606

List of optional additional citations

  1. Neese, F.
     Approximate second-order SCF convergence for spin unrestricted wavefunctions
     Chem. Phys. Lett. 2000 325(1-3), 93-98
     doi.org/10.1016/s0009-2614(00)00662-x

Timings for individual modules:

Sum of individual times          ...     7597.211 sec (= 126.620 min)
Startup calculation              ...       16.976 sec (=   0.283 min)   0.2 %
SCF iterations                   ...      703.120 sec (=  11.719 min)   9.3 %
Property integrals               ...      243.459 sec (=   4.058 min)   3.2 %
SCF Response                     ...      166.378 sec (=   2.773 min)   2.2 %
Property calculations            ...     5991.753 sec (=  99.863 min)  78.9 %
SCF Gradient evaluation          ...      475.477 sec (=   7.925 min)   6.3 %
Geometry relaxation              ...        0.046 sec (=   0.001 min)   0.0 %
                             ****ORCA TERMINATED NORMALLY****
TOTAL RUN TIME: 0 days 2 hours 6 minutes 38 seconds 905 msec
